 Entering Gaussian System, Link 0=g16
 Input=/Users/tricia/Files/work/jobs/ehim_cl_631gdp_opt.gjf
 Output=/Users/tricia/Files/work/jobs/ehim_cl_631gdp_opt.log
 Initial command:
 /Applications/g16/l1.exe "/Users/tricia/files/work/jobs/tmp/Gau-1818.inp" -scrdir="/Users/tricia/files/work/jobs/tmp/"
 Entering Link 1 = /Applications/g16/l1.exe PID=      1819.
  
 Copyright (c) 1988-2019, Gaussian, Inc.  All Rights Reserved.
  
 This is part of the Gaussian(R) 16 program.  It is based on
 the Gaussian(R) 09 system (copyright 2009, Gaussian, Inc.),
 the Gaussian(R) 03 system (copyright 2003, Gaussian, Inc.),
 the Gaussian(R) 98 system (copyright 1998, Gaussian, Inc.),
 the Gaussian(R) 94 system (copyright 1995, Gaussian, Inc.),
 the Gaussian 92(TM) system (copyright 1992, Gaussian, Inc.),
 the Gaussian 90(TM) system (copyright 1990, Gaussian, Inc.),
 the Gaussian 88(TM) system (copyright 1988, Gaussian, Inc.),
 the Gaussian 86(TM) system (copyright 1986, Carnegie Mellon
 University), and the Gaussian 82(TM) system (copyright 1983,
 Carnegie Mellon University). Gaussian is a federally registered
 trademark of Gaussian, Inc.
  
 This software contains proprietary and confidential information,
 including trade secrets, belonging to Gaussian, Inc.
  
 This software is provided under written license and may be
 used, copied, transmitted, or stored only in accord with that
 written license.
  
 The following legend is applicable only to US Government
 contracts under FAR:
  
                    RESTRICTED RIGHTS LEGEND
  
 Use, reproduction and disclosure by the US Government is
 subject to restrictions as set forth in subparagraphs (a)
 and (c) of the Commercial Computer Software - Restricted
 Rights clause in FAR 52.227-19.
  
 Gaussian, Inc.
 340 Quinnipiac St., Bldg. 40, Wallingford CT 06492
  
  
 ---------------------------------------------------------------
 Warning -- This program may not be used in any manner that
 competes with the business of Gaussian, Inc. or will provide
 assistance to any competitor of Gaussian, Inc.  The licensee
 of this program is prohibited from giving any competitor of
 Gaussian, Inc. access to this program.  By using this program,
 the user acknowledges that Gaussian, Inc. is engaged in the
 business of creating and licensing software in the field of
 computational chemistry and represents and warrants to the
 licensee that it is not a competitor of Gaussian, Inc. and that
 it will not use this program in any manner prohibited above.
 ---------------------------------------------------------------
  

 Cite this work as:
 Gaussian 16, Revision C.01,
 M. J. Frisch, G. W. Trucks, H. B. Schlegel, G. E. Scuseria, 
 M. A. Robb, J. R. Cheeseman, G. Scalmani, V. Barone, 
 G. A. Petersson, H. Nakatsuji, X. Li, M. Caricato, A. V. Marenich, 
 J. Bloino, B. G. Janesko, R. Gomperts, B. Mennucci, H. P. Hratchian, 
 J. V. Ortiz, A. F. Izmaylov, J. L. Sonnenberg, D. Williams-Young, 
 F. Ding, F. Lipparini, F. Egidi, J. Goings, B. Peng, A. Petrone, 
 T. Henderson, D. Ranasinghe, V. G. Zakrzewski, J. Gao, N. Rega, 
 G. Zheng, W. Liang, M. Hada, M. Ehara, K. Toyota, R. Fukuda, 
 J. Hasegawa, M. Ishida, T. Nakajima, Y. Honda, O. Kitao, H. Nakai, 
 T. Vreven, K. Throssell, J. A. Montgomery, Jr., J. E. Peralta, 
 F. Ogliaro, M. J. Bearpark, J. J. Heyd, E. N. Brothers, K. N. Kudin, 
 V. N. Staroverov, T. A. Keith, R. Kobayashi, J. Normand, 
 K. Raghavachari, A. P. Rendell, J. C. Burant, S. S. Iyengar, 
 J. Tomasi, M. Cossi, J. M. Millam, M. Klene, C. Adamo, R. Cammi, 
 J. W. Ochterski, R. L. Martin, K. Morokuma, O. Farkas, 
 J. B. Foresman, and D. J. Fox, Gaussian, Inc., Wallingford CT, 2019.
 
 ******************************************
 Gaussian 16:  EM64M-G16RevC.01  3-Jul-2019
                23-Apr-2024 
 ******************************************
 %chk=ehim_cl_631gdp_opt.chk
 ------------------------------------------------
 # opt b3lyp/6-31g(d,p) int=ultrafine scfconver=9
 ------------------------------------------------
 1/18=20,19=15,26=4,38=1/1,3;
 2/9=110,12=2,17=6,18=5,40=1/2;
 3/5=1,6=6,7=101,11=2,25=1,30=1,71=1,74=-5,75=-5/1,2,3;
 4//1;
 5/5=2,6=9,38=5/2;
 6/7=2,8=2,9=2,10=2,28=1/1;
 7//1,2,3,16;
 1/18=20,19=15,26=4/3(2);
 2/9=110/2;
 99//99;
 2/9=110/2;
 3/5=1,6=6,7=101,11=2,25=1,30=1,71=1,74=-5,75=-5/1,2,3;
 4/5=5,16=3,69=1/1;
 5/5=2,6=9,38=5/2;
 7//1,2,3,16;
 1/18=20,19=15,26=4/3(-5);
 2/9=110/2;
 6/7=2,8=2,9=2,10=2,19=2,28=1/1;
 99/9=1/99;
 -----
 Title
 -----
 Symbolic Z-matrix:
 Charge =  0 Multiplicity = 1
 C                    -0.21849   1.61944   0.17752 
 H                    -0.78238   2.49731   0.43153 
 C                     1.1273    1.45242  -0.01471 
 H                     1.94281   2.14983   0.03955 
 C                     0.10803  -0.51032  -0.33038 
 H                    -0.07198  -1.54854  -0.54263 
 N                    -0.8281    0.38722  -0.02412 
 N                     1.32196   0.10423  -0.33835 
 C                     2.63075  -0.55713  -0.57614 
 H                     3.23602   0.12022  -1.18377 
 H                     2.43408  -1.45906  -1.16118 
 C                     3.33642  -0.90075   0.74684 
 H                     4.29349  -1.38828   0.53632 
 H                     3.52664   0.00507   1.32991 
 H                     2.71969  -1.57862   1.34376 
 Cl                   -3.57028  -0.52729   0.09886 
 H                    -1.96463   0.10389   0.0445 
 
 Add virtual bond connecting atoms H17        and Cl16       Dist= 3.26D+00.

 GradGradGradGradGradGradGradGradGradGradGradGradGradGradGradGradGradGrad
 Berny optimization.
 Initialization pass.
                           ----------------------------
                           !    Initial Parameters    !
                           ! (Angstroms and Degrees)  !
 --------------------------                            --------------------------
 ! Name  Definition              Value          Derivative Info.                !
 --------------------------------------------------------------------------------
 ! R1    R(1,2)                  1.0739         estimate D2E/DX2                !
 ! R2    R(1,3)                  1.3697         estimate D2E/DX2                !
 ! R3    R(1,7)                  1.3895         estimate D2E/DX2                !
 ! R4    R(3,4)                  1.0744         estimate D2E/DX2                !
 ! R5    R(3,8)                  1.4001         estimate D2E/DX2                !
 ! R6    R(5,6)                  1.0749         estimate D2E/DX2                !
 ! R7    R(5,7)                  1.3326         estimate D2E/DX2                !
 ! R8    R(5,8)                  1.3607         estimate D2E/DX2                !
 ! R9    R(7,17)                 1.1733         estimate D2E/DX2                !
 ! R10   R(8,9)                  1.4855         estimate D2E/DX2                !
 ! R11   R(9,10)                 1.0929         estimate D2E/DX2                !
 ! R12   R(9,11)                 1.0929         estimate D2E/DX2                !
 ! R13   R(9,12)                 1.5383         estimate D2E/DX2                !
 ! R14   R(12,13)                1.0945         estimate D2E/DX2                !
 ! R15   R(12,14)                1.0939         estimate D2E/DX2                !
 ! R16   R(12,15)                1.0937         estimate D2E/DX2                !
 ! R17   R(16,17)                1.7261         estimate D2E/DX2                !
 ! A1    A(2,1,3)              130.4544         estimate D2E/DX2                !
 ! A2    A(2,1,7)              121.9326         estimate D2E/DX2                !
 ! A3    A(3,1,7)              107.6123         estimate D2E/DX2                !
 ! A4    A(1,3,4)              131.2653         estimate D2E/DX2                !
 ! A5    A(1,3,8)              106.647          estimate D2E/DX2                !
 ! A6    A(4,3,8)              122.0856         estimate D2E/DX2                !
 ! A7    A(6,5,7)              125.3323         estimate D2E/DX2                !
 ! A8    A(6,5,8)              125.7683         estimate D2E/DX2                !
 ! A9    A(7,5,8)              108.8981         estimate D2E/DX2                !
 ! A10   A(1,7,5)              108.8119         estimate D2E/DX2                !
 ! A11   A(1,7,17)             129.0973         estimate D2E/DX2                !
 ! A12   A(5,7,17)             122.0908         estimate D2E/DX2                !
 ! A13   A(3,8,5)              108.0301         estimate D2E/DX2                !
 ! A14   A(3,8,9)              126.0282         estimate D2E/DX2                !
 ! A15   A(5,8,9)              125.8649         estimate D2E/DX2                !
 ! A16   A(8,9,10)             107.5185         estimate D2E/DX2                !
 ! A17   A(8,9,11)             107.1309         estimate D2E/DX2                !
 ! A18   A(8,9,12)             111.4652         estimate D2E/DX2                !
 ! A19   A(10,9,11)            108.2715         estimate D2E/DX2                !
 ! A20   A(10,9,12)            111.2569         estimate D2E/DX2                !
 ! A21   A(11,9,12)            111.0134         estimate D2E/DX2                !
 ! A22   A(9,12,13)            109.5849         estimate D2E/DX2                !
 ! A23   A(9,12,14)            110.6834         estimate D2E/DX2                !
 ! A24   A(9,12,15)            110.4357         estimate D2E/DX2                !
 ! A25   A(13,12,14)           108.6212         estimate D2E/DX2                !
 ! A26   A(13,12,15)           108.7827         estimate D2E/DX2                !
 ! A27   A(14,12,15)           108.6857         estimate D2E/DX2                !
 ! A28   L(7,17,16,6,-1)       172.3926         estimate D2E/DX2                !
 ! A29   L(7,17,16,6,-2)       179.6812         estimate D2E/DX2                !
 ! D1    D(2,1,3,4)             -0.0514         estimate D2E/DX2                !
 ! D2    D(2,1,3,8)           -179.5209         estimate D2E/DX2                !
 ! D3    D(7,1,3,4)            179.6173         estimate D2E/DX2                !
 ! D4    D(7,1,3,8)              0.1477         estimate D2E/DX2                !
 ! D5    D(2,1,7,5)            179.7            estimate D2E/DX2                !
 ! D6    D(2,1,7,17)            -0.2949         estimate D2E/DX2                !
 ! D7    D(3,1,7,5)             -0.0029         estimate D2E/DX2                !
 ! D8    D(3,1,7,17)          -179.9978         estimate D2E/DX2                !
 ! D9    D(1,3,8,5)             -0.2387         estimate D2E/DX2                !
 ! D10   D(1,3,8,9)           -177.1945         estimate D2E/DX2                !
 ! D11   D(4,3,8,5)           -179.7681         estimate D2E/DX2                !
 ! D12   D(4,3,8,9)              3.2761         estimate D2E/DX2                !
 ! D13   D(6,5,7,1)           -179.7574         estimate D2E/DX2                !
 ! D14   D(6,5,7,17)             0.2379         estimate D2E/DX2                !
 ! D15   D(8,5,7,1)             -0.1492         estimate D2E/DX2                !
 ! D16   D(8,5,7,17)           179.8461         estimate D2E/DX2                !
 ! D17   D(6,5,8,3)            179.8475         estimate D2E/DX2                !
 ! D18   D(6,5,8,9)             -3.1904         estimate D2E/DX2                !
 ! D19   D(7,5,8,3)              0.2414         estimate D2E/DX2                !
 ! D20   D(7,5,8,9)            177.2035         estimate D2E/DX2                !
 ! D21   D(3,8,9,10)           -42.5297         estimate D2E/DX2                !
 ! D22   D(3,8,9,11)          -158.7182         estimate D2E/DX2                !
 ! D23   D(3,8,9,12)            79.654          estimate D2E/DX2                !
 ! D24   D(5,8,9,10)           141.0429         estimate D2E/DX2                !
 ! D25   D(5,8,9,11)            24.8544         estimate D2E/DX2                !
 ! D26   D(5,8,9,12)           -96.7734         estimate D2E/DX2                !
 ! D27   D(8,9,12,13)          179.8223         estimate D2E/DX2                !
 ! D28   D(8,9,12,14)          -60.4031         estimate D2E/DX2                !
 ! D29   D(8,9,12,15)           60.0026         estimate D2E/DX2                !
 ! D30   D(10,9,12,13)         -60.1761         estimate D2E/DX2                !
 ! D31   D(10,9,12,14)          59.5986         estimate D2E/DX2                !
 ! D32   D(10,9,12,15)        -179.9957         estimate D2E/DX2                !
 ! D33   D(11,9,12,13)          60.475          estimate D2E/DX2                !
 ! D34   D(11,9,12,14)        -179.7503         estimate D2E/DX2                !
 ! D35   D(11,9,12,15)         -59.3446         estimate D2E/DX2                !
 --------------------------------------------------------------------------------
 Trust Radius=3.00D-01 FncErr=1.00D-07 GrdErr=1.00D-06 EigMax=2.50D+02 EigMin=1.00D-04
 Number of steps in this run=     91 maximum allowed number of steps=    102.
 GradGradGradGradGradGradGradGradGradGradGradGradGradGradGradGradGradGrad

                          Input orientation:                          
 ---------------------------------------------------------------------
 Center     Atomic      Atomic             Coordinates (Angstroms)
 Number     Number       Type             X           Y           Z
 ---------------------------------------------------------------------
      1          6           0       -0.218490    1.619437    0.177519
      2          1           0       -0.782382    2.497309    0.431534
      3          6           0        1.127299    1.452416   -0.014707
      4          1           0        1.942810    2.149832    0.039546
      5          6           0        0.108026   -0.510318   -0.330382
      6          1           0       -0.071980   -1.548535   -0.542630
      7          7           0       -0.828095    0.387222   -0.024120
      8          7           0        1.321960    0.104230   -0.338354
      9          6           0        2.630745   -0.557127   -0.576143
     10          1           0        3.236021    0.120215   -1.183768
     11          1           0        2.434082   -1.459063   -1.161184
     12          6           0        3.336419   -0.900747    0.746842
     13          1           0        4.293486   -1.388283    0.536316
     14          1           0        3.526638    0.005074    1.329905
     15          1           0        2.719687   -1.578615    1.343757
     16         17           0       -3.570281   -0.527291    0.098857
     17          1           0       -1.964626    0.103885    0.044497
 ---------------------------------------------------------------------
                    Distance matrix (angstroms):
                    1          2          3          4          5
     1  C    0.000000
     2  H    1.073852   0.000000
     3  C    1.369670   2.222119   0.000000
     4  H    2.229702   2.775080   1.074426   0.000000
     5  C    2.213692   3.227873   2.234031   3.252642   0.000000
     6  H    3.252096   4.221673   3.274550   4.251615   1.074870
     7  N    1.389471   2.159208   2.226722   3.284625   1.332553
     8  N    2.221478   3.278385   1.400088   2.170887   1.360650
     9  C    3.663820   4.689822   2.571735   2.860062   2.535094
    10  H    4.004300   4.940378   2.754664   2.699673   3.303058
    11  H    4.278484   5.341842   3.390988   3.835000   2.645919
    12  C    4.394637   5.348899   3.316255   3.427601   3.425692
    13  H    5.434431   6.393218   4.289282   4.276765   4.363492
    14  H    4.237941   5.058257   3.107991   2.962014   3.835243
    15  H    4.496725   5.450669   3.683514   4.025645   3.280971
    16  Cl   3.981097   4.126895   5.098960   6.129003   3.703306
    17  H    2.315941   2.697402   3.373728   4.410667   2.194007
                    6          7          8          9         10
     6  H    0.000000
     7  N    2.141896   0.000000
     8  N    2.171734   2.191247   0.000000
     9  C    2.879016   3.627685   1.485549   0.000000
    10  H    3.760140   4.234751   2.092513   1.092867   0.000000
    11  H    2.582820   3.917076   2.087522   1.092903   1.771365
    12  C    3.701290   4.426785   2.499135   1.538291   2.186252
    13  H    4.499678   5.449504   3.438402   2.166355   2.520414
    14  H    4.343977   4.576365   2.766501   2.179842   2.533035
    15  H    3.369386   4.280463   2.759548   2.176549   3.088852
    16  Cl   3.700345   2.893275   4.952171   6.237727   6.956302
    17  H    2.580178   1.173325   3.308810   4.683969   5.343747
                   11         12         13         14         15
    11  H    0.000000
    12  C    2.183230   0.000000
    13  H    2.518710   1.094527   0.000000
    14  H    3.089158   1.093918   1.777437   0.000000
    15  H    2.524003   1.093696   1.779053   1.777479   0.000000
    16  Cl   6.205504   6.947076   7.922847   7.222545   6.497596
    17  H    4.821318   5.440924   6.452319   5.640569   5.144091
                   16         17
    16  Cl   0.000000
    17  H    1.726113   0.000000
 Stoichiometry    C5H9ClN2
 Framework group  C1[X(C5H9ClN2)]
 Deg. of freedom    45
 Full point group                 C1      NOp   1
 Largest Abelian subgroup         C1      NOp   1
 Largest concise Abelian subgroup C1      NOp   1
                         Standard orientation:                         
 ---------------------------------------------------------------------
 Center     Atomic      Atomic             Coordinates (Angstroms)
 Number     Number       Type             X           Y           Z
 ---------------------------------------------------------------------
      1          6           0       -0.218490    1.619437    0.177519
      2          1           0       -0.782382    2.497309    0.431534
      3          6           0        1.127299    1.452416   -0.014707
      4          1           0        1.942810    2.149832    0.039546
      5          6           0        0.108026   -0.510318   -0.330382
      6          1           0       -0.071980   -1.548535   -0.542630
      7          7           0       -0.828095    0.387222   -0.024120
      8          7           0        1.321960    0.104230   -0.338354
      9          6           0        2.630745   -0.557127   -0.576143
     10          1           0        3.236021    0.120215   -1.183768
     11          1           0        2.434082   -1.459063   -1.161184
     12          6           0        3.336419   -0.900747    0.746842
     13          1           0        4.293486   -1.388283    0.536316
     14          1           0        3.526638    0.005074    1.329905
     15          1           0        2.719687   -1.578615    1.343757
     16         17           0       -3.570281   -0.527291    0.098857
     17          1           0       -1.964626    0.103885    0.044497
 ---------------------------------------------------------------------
 Rotational constants (GHZ):           3.9945750           0.6357784           0.5752520
 Standard basis: 6-31G(d,p) (6D, 7F)
 There are   169 symmetry adapted cartesian basis functions of A   symmetry.
 There are   169 symmetry adapted basis functions of A   symmetry.
   169 basis functions,   311 primitive gaussians,   169 cartesian basis functions
    35 alpha electrons       35 beta electrons
       nuclear repulsion energy       409.6948647959 Hartrees.
 NAtoms=   17 NActive=   17 NUniq=   17 SFac= 1.00D+00 NAtFMM=   60 NAOKFM=F Big=F
 Integral buffers will be    131072 words long.
 Raffenetti 2 integral format.
 Two-electron integral symmetry is turned on.
 One-electron integrals computed using PRISM.
 NBasis=   169 RedAO= T EigKep=  1.49D-03  NBF=   169
 NBsUse=   169 1.00D-06 EigRej= -1.00D+00 NBFU=   169
 ExpMin= 1.43D-01 ExpMax= 2.52D+04 ExpMxC= 3.78D+03 IAcc=3 IRadAn=         5 AccDes= 0.00D+00
 Harris functional with IExCor=  402 and IRadAn=       5 diagonalized for initial guess.
 HarFok:  IExCor=  402 AccDes= 0.00D+00 IRadAn=         5 IDoV= 1 UseB2=F ITyADJ=14
 ICtDFT=  3500011 ScaDFX=  1.000000  1.000000  1.000000  1.000000
 FoFCou: FMM=F IPFlag=           0 FMFlag=      100000 FMFlg1=           0
         NFxFlg=           0 DoJE=T BraDBF=F KetDBF=T FulRan=T
         wScrn=  0.000000 ICntrl=       500 IOpCl=  0 I1Cent=   200000004 NGrid=           0
         NMat0=    1 NMatS0=      1 NMatT0=    0 NMatD0=    1 NMtDS0=    0 NMtDT0=    0
 Petite list used in FoFCou.
 Keep R1 ints in memory in canonical form, NReq=105641762.
 Requested convergence on RMS density matrix=1.00D-09 within 128 cycles.
 Requested convergence on MAX density matrix=1.00D-07.
 Requested convergence on             energy=1.00D-07.
 No special actions if energy rises.
 Integral accuracy reduced to 1.0D-05 until final iterations.
 Initial convergence to 1.0D-05 achieved.  Increase integral accuracy.
 SCF Done:  E(RB3LYP) =  -765.671954746     A.U. after   15 cycles
            NFock= 15  Conv=0.99D-09     -V/T= 2.0060

 **********************************************************************

            Population analysis using the SCF Density.

 **********************************************************************

 Orbital symmetries:
       Occupied  (A) (A) (A) (A) (A) (A) (A) (A) (A) (A) (A) (A)
                 (A) (A) (A) (A) (A) (A) (A) (A) (A) (A) (A) (A)
                 (A) (A) (A) (A) (A) (A) (A) (A) (A) (A) (A)
       Virtual   (A) (A) (A) (A) (A) (A) (A) (A) (A) (A) (A) (A)
                 (A) (A) (A) (A) (A) (A) (A) (A) (A) (A) (A) (A)
                 (A) (A) (A) (A) (A) (A) (A) (A) (A) (A) (A) (A)
                 (A) (A) (A) (A) (A) (A) (A) (A) (A) (A) (A) (A)
                 (A) (A) (A) (A) (A) (A) (A) (A) (A) (A) (A) (A)
                 (A) (A) (A) (A) (A) (A) (A) (A) (A) (A) (A) (A)
                 (A) (A) (A) (A) (A) (A) (A) (A) (A) (A) (A) (A)
                 (A) (A) (A) (A) (A) (A) (A) (A) (A) (A) (A) (A)
                 (A) (A) (A) (A) (A) (A) (A) (A) (A) (A) (A) (A)
                 (A) (A) (A) (A) (A) (A) (A) (A) (A) (A) (A) (A)
                 (A) (A) (A) (A) (A) (A) (A) (A) (A) (A) (A) (A)
                 (A) (A)
 The electronic state is 1-A.
 Alpha  occ. eigenvalues -- -101.39617 -14.45580 -14.40853 -10.30682 -10.28817
 Alpha  occ. eigenvalues --  -10.27038 -10.26291 -10.22999  -9.31185  -7.07148
 Alpha  occ. eigenvalues --   -7.06847  -7.06831  -1.07648  -0.95047  -0.82070
 Alpha  occ. eigenvalues --   -0.79908  -0.70397  -0.67382  -0.65448  -0.63390
 Alpha  occ. eigenvalues --   -0.59220  -0.51743  -0.51266  -0.49088  -0.48497
 Alpha  occ. eigenvalues --   -0.47998  -0.45838  -0.43784  -0.42548  -0.40742
 Alpha  occ. eigenvalues --   -0.33473  -0.28889  -0.21804  -0.19474  -0.19312
 Alpha virt. eigenvalues --   -0.03564  -0.00192   0.04798   0.07747   0.08016
 Alpha virt. eigenvalues --    0.09550   0.11001   0.12027   0.12449   0.13738
 Alpha virt. eigenvalues --    0.13884   0.16697   0.18072   0.19906   0.21810
 Alpha virt. eigenvalues --    0.28719   0.29892   0.38772   0.43473   0.43820
 Alpha virt. eigenvalues --    0.44560   0.47930   0.48772   0.49801   0.51493
 Alpha virt. eigenvalues --    0.51842   0.53132   0.54603   0.55264   0.55837
 Alpha virt. eigenvalues --    0.57239   0.58323   0.60229   0.62934   0.63731
 Alpha virt. eigenvalues --    0.69620   0.72842   0.75354   0.76436   0.78440
 Alpha virt. eigenvalues --    0.80167   0.82145   0.83206   0.84050   0.85410
 Alpha virt. eigenvalues --    0.86160   0.89401   0.90364   0.93406   0.97210
 Alpha virt. eigenvalues --    0.98547   0.99914   1.00254   1.01150   1.01188
 Alpha virt. eigenvalues --    1.03998   1.11645   1.16715   1.18293   1.20102
 Alpha virt. eigenvalues --    1.26712   1.27904   1.28359   1.34053   1.37432
 Alpha virt. eigenvalues --    1.39219   1.47116   1.49158   1.51770   1.56664
 Alpha virt. eigenvalues --    1.60602   1.69236   1.75242   1.80195   1.81632
 Alpha virt. eigenvalues --    1.84004   1.85791   1.87059   1.88139   1.94116
 Alpha virt. eigenvalues --    1.97721   1.99787   2.01021   2.01654   2.04512
 Alpha virt. eigenvalues --    2.05347   2.08730   2.12000   2.14757   2.16795
 Alpha virt. eigenvalues --    2.18078   2.20450   2.26465   2.29747   2.31872
 Alpha virt. eigenvalues --    2.33312   2.37773   2.39125   2.42182   2.46363
 Alpha virt. eigenvalues --    2.46755   2.51219   2.53927   2.55805   2.58312
 Alpha virt. eigenvalues --    2.61198   2.64441   2.69061   2.71663   2.73257
 Alpha virt. eigenvalues --    2.76933   2.81785   2.85550   2.86769   2.88765
 Alpha virt. eigenvalues --    2.96391   3.11620   3.14436   3.19213   3.22849
 Alpha virt. eigenvalues --    3.23088   3.34368   3.40641   3.46839   3.59325
 Alpha virt. eigenvalues --    3.71602   3.97505   4.08736   4.13826   4.31401
 Alpha virt. eigenvalues --    4.37145   4.47567   4.56874   4.63512
          Condensed to atoms (all electrons):
               1          2          3          4          5          6
     1  C    4.736705   0.391686   0.577750  -0.030547  -0.102077   0.004513
     2  H    0.391686   0.519899  -0.040902   0.000035   0.005887  -0.000095
     3  C    0.577750  -0.040902   4.803586   0.382770  -0.093736   0.002905
     4  H   -0.030547   0.000035   0.382770   0.536628   0.005054  -0.000088
     5  C   -0.102077   0.005887  -0.093736   0.005054   4.655603   0.387799
     6  H    0.004513  -0.000095   0.002905  -0.000088   0.387799   0.488371
     7  N    0.379615  -0.037057  -0.041900   0.003378   0.447289  -0.032344
     8  N   -0.046430   0.002726   0.374188  -0.040895   0.396732  -0.040998
     9  C    0.005059  -0.000073  -0.032520  -0.000734  -0.032932  -0.000108
    10  H    0.000072  -0.000004  -0.002591   0.001704   0.002693  -0.000031
    11  H   -0.000273   0.000003   0.003434   0.000025  -0.002639   0.002393
    12  C   -0.000040   0.000001  -0.000527   0.000093  -0.001050   0.000089
    13  H    0.000002  -0.000000  -0.000030  -0.000022  -0.000048  -0.000008
    14  H   -0.000138   0.000002   0.003131   0.000603  -0.000140   0.000005
    15  H   -0.000012  -0.000000  -0.000303   0.000003   0.002367   0.000147
    16  Cl   0.002694   0.000807  -0.000340   0.000004   0.001512   0.002701
    17  H   -0.004962   0.000002   0.001530  -0.000002  -0.014644   0.000933
               7          8          9         10         11         12
     1  C    0.379615  -0.046430   0.005059   0.000072  -0.000273  -0.000040
     2  H   -0.037057   0.002726  -0.000073  -0.000004   0.000003   0.000001
     3  C   -0.041900   0.374188  -0.032520  -0.002591   0.003434  -0.000527
     4  H    0.003378  -0.040895  -0.000734   0.001704   0.000025   0.000093
     5  C    0.447289   0.396732  -0.032932   0.002693  -0.002639  -0.001050
     6  H   -0.032344  -0.040998  -0.000108  -0.000031   0.002393   0.000089
     7  N    6.839182  -0.065108   0.004010  -0.000198   0.000148  -0.000111
     8  N   -0.065108   6.697461   0.264882  -0.034872  -0.033660  -0.061092
     9  C    0.004010   0.264882   4.817361   0.390948   0.392131   0.362861
    10  H   -0.000198  -0.034872   0.390948   0.572004  -0.031156  -0.041259
    11  H    0.000148  -0.033660   0.392131  -0.031156   0.565603  -0.037336
    12  C   -0.000111  -0.061092   0.362861  -0.041259  -0.037336   4.941843
    13  H    0.000001   0.004055  -0.027262  -0.001145  -0.001724   0.376618
    14  H    0.000005  -0.003301  -0.032149  -0.004599   0.004504   0.388427
    15  H   -0.000119  -0.001695  -0.031921   0.004625  -0.004653   0.388194
    16  Cl  -0.106925  -0.000014   0.000008  -0.000000   0.000000  -0.000000
    17  H    0.078877   0.001327   0.000028   0.000001  -0.000001  -0.000001
              13         14         15         16         17
     1  C    0.000002  -0.000138  -0.000012   0.002694  -0.004962
     2  H   -0.000000   0.000002  -0.000000   0.000807   0.000002
     3  C   -0.000030   0.003131  -0.000303  -0.000340   0.001530
     4  H   -0.000022   0.000603   0.000003   0.000004  -0.000002
     5  C   -0.000048  -0.000140   0.002367   0.001512  -0.014644
     6  H   -0.000008   0.000005   0.000147   0.002701   0.000933
     7  N    0.000001   0.000005  -0.000119  -0.106925   0.078877
     8  N    0.004055  -0.003301  -0.001695  -0.000014   0.001327
     9  C   -0.027262  -0.032149  -0.031921   0.000008   0.000028
    10  H   -0.001145  -0.004599   0.004625  -0.000000   0.000001
    11  H   -0.001724   0.004504  -0.004653   0.000000  -0.000001
    12  C    0.376618   0.388427   0.388194  -0.000000  -0.000001
    13  H    0.568801  -0.026065  -0.025083   0.000000  -0.000000
    14  H   -0.026065   0.569114  -0.028992   0.000000   0.000000
    15  H   -0.025083  -0.028992   0.560689  -0.000000  -0.000000
    16  Cl   0.000000   0.000000  -0.000000  17.527689   0.222119
    17  H   -0.000000   0.000000  -0.000000   0.222119   0.446602
 Mulliken charges:
               1
     1  C    0.086382
     2  H    0.157081
     3  C    0.063555
     4  H    0.141990
     5  C    0.342329
     6  H    0.183816
     7  N   -0.468744
     8  N   -0.413306
     9  C   -0.079588
    10  H    0.143808
    11  H    0.143199
    12  C   -0.316711
    13  H    0.131910
    14  H    0.129593
    15  H    0.136752
    16  Cl  -0.650257
    17  H    0.268190
 Sum of Mulliken charges =  -0.00000
 Mulliken charges with hydrogens summed into heavy atoms:
               1
     1  C    0.243463
     3  C    0.205545
     5  C    0.526146
     7  N   -0.200554
     8  N   -0.413306
     9  C    0.207419
    12  C    0.081544
    16  Cl  -0.650257
 Electronic spatial extent (au):  <R**2>=           1887.4107
 Charge=             -0.0000 electrons
 Dipole moment (field-independent basis, Debye):
    X=             13.3293    Y=              1.7432    Z=             -0.7985  Tot=             13.4665
 Quadrupole moment (field-independent basis, Debye-Ang):
   XX=            -81.8955   YY=            -48.4921   ZZ=            -56.7803
   XY=             -7.5077   XZ=             -0.2872   YZ=              2.1457
 Traceless Quadrupole moment (field-independent basis, Debye-Ang):
   XX=            -19.5062   YY=             13.8972   ZZ=              5.6090
   XY=             -7.5077   XZ=             -0.2872   YZ=              2.1457
 Octapole moment (field-independent basis, Debye-Ang**2):
  XXX=            178.5965  YYY=             10.3138  ZZZ=             -1.4080  XYY=             10.3436
  XXY=             19.3961  XXZ=             -6.3458  XZZ=              5.8475  YZZ=             -2.1509
  YYZ=              0.7225  XYZ=             -0.8892
 Hexadecapole moment (field-independent basis, Debye-Ang**3):
 XXXX=          -2442.7871 YYYY=           -309.5574 ZZZZ=           -125.8523 XXXY=            -84.1226
 XXXZ=              3.5595 YYYX=             -9.9292 YYYZ=             11.0874 ZZZX=             -2.0356
 ZZZY=              1.0472 XXYY=           -391.9052 XXZZ=           -365.8945 YYZZ=            -79.2800
 XXYZ=              3.7805 YYXZ=             -2.2342 ZZXY=             -4.4300
 N-N= 4.096948647959D+02 E-N=-2.620911815049D+03  KE= 7.610716866981D+02
 Calling FoFJK, ICntrl=      2127 FMM=F ISym2X=0 I1Cent= 0 IOpClX= 0 NMat=1 NMatS=1 NMatT=0.
 ***** Axes restored to original set *****
 -------------------------------------------------------------------
 Center     Atomic                   Forces (Hartrees/Bohr)
 Number     Number              X              Y              Z
 -------------------------------------------------------------------
      1        6           0.001859507   -0.017803420   -0.004001306
      2        1          -0.002435185    0.002068553    0.000647750
      3        6          -0.006222052   -0.013354495   -0.002243462
      4        1           0.002861033    0.001067550   -0.000073194
      5        6           0.003489458    0.023054891    0.004486415
      6        1          -0.000520846   -0.002897788   -0.000565944
      7        7           0.006096174    0.003211778    0.000089616
      8        7          -0.000602844    0.000656396   -0.001189964
      9        6          -0.005738710    0.002535865    0.008589447
     10        1          -0.000558450   -0.000384737   -0.000669111
     11        1           0.000016003    0.000906226   -0.000526703
     12        6          -0.001999708    0.001080284   -0.005439530
     13        1          -0.000437245    0.000275022    0.000640552
     14        1           0.000363246   -0.000877502    0.000277926
     15        1           0.000895669    0.000214355    0.000286172
     16       17           0.009122982    0.003491508   -0.000322448
     17        1          -0.006189033   -0.003244485    0.000013786
 -------------------------------------------------------------------
 Cartesian Forces:  Max     0.023054891 RMS     0.005419356

 GradGradGradGradGradGradGradGradGradGradGradGradGradGradGradGradGradGrad
 Berny optimization.
 FormGI is forming the generalized inverse of G from B-inverse, IUseBI=4.
 Internal  Forces:  Max     0.015047931 RMS     0.003520690
 Search for a local minimum.
 Step number   1 out of a maximum of   91
 All quantities printed in internal units (Hartrees-Bohrs-Radians)
 Mixed Optimization -- RFO/linear search
 Second derivative matrix not updated -- first step.
 ITU=  0
     Eigenvalues ---    0.00230   0.00230   0.00259   0.00560   0.01336
     Eigenvalues ---    0.01966   0.02043   0.02163   0.02277   0.02303
     Eigenvalues ---    0.02413   0.04190   0.05213   0.05537   0.05648
     Eigenvalues ---    0.09302   0.09844   0.12675   0.15999   0.15999
     Eigenvalues ---    0.16000   0.16000   0.16000   0.16000   0.16000
     Eigenvalues ---    0.21969   0.22000   0.23160   0.24941   0.26720
     Eigenvalues ---    0.28671   0.33942   0.34295   0.34364   0.34389
     Eigenvalues ---    0.34479   0.34483   0.36621   0.36676   0.36748
     Eigenvalues ---    0.41559   0.44536   0.47741   0.51872   0.56623
 RFO step:  Lambda=-3.15138012D-03 EMin= 2.30000000D-03
 Linear search not attempted -- first point.
 Iteration  1 RMS(Cart)=  0.02721378 RMS(Int)=  0.00061740
 Iteration  2 RMS(Cart)=  0.00074889 RMS(Int)=  0.00001616
 Iteration  3 RMS(Cart)=  0.00000084 RMS(Int)=  0.00001615
 Variable       Old X    -DE/DX   Delta X   Delta X   Delta X     New X
                                 (Linear)    (Quad)   (Total)
    R1        2.02929   0.00312   0.00000   0.00843   0.00843   2.03771
    R2        2.58830  -0.00370   0.00000  -0.00619  -0.00620   2.58210
    R3        2.62572  -0.01505   0.00000  -0.03136  -0.03136   2.59436
    R4        2.03037   0.00286   0.00000   0.00773   0.00773   2.03810
    R5        2.64578  -0.01373   0.00000  -0.02940  -0.02941   2.61637
    R6        2.03121   0.00300   0.00000   0.00812   0.00812   2.03933
    R7        2.51816  -0.01158   0.00000  -0.02034  -0.02032   2.49784
    R8        2.57126  -0.01116   0.00000  -0.02173  -0.02172   2.54954
    R9        2.21726  -0.00292   0.00000  -0.01080  -0.01080   2.20646
   R10        2.80728  -0.00875   0.00000  -0.02553  -0.02553   2.78175
   R11        2.06522  -0.00018   0.00000  -0.00051  -0.00051   2.06471
   R12        2.06529  -0.00047   0.00000  -0.00135  -0.00135   2.06394
   R13        2.90695  -0.00434   0.00000  -0.01496  -0.01496   2.89199
   R14        2.06836  -0.00063   0.00000  -0.00181  -0.00181   2.06654
   R15        2.06721  -0.00052   0.00000  -0.00149  -0.00149   2.06572
   R16        2.06679  -0.00048   0.00000  -0.00139  -0.00139   2.06540
   R17        3.26188  -0.00977   0.00000  -0.09620  -0.09620   3.16568
    A1        2.27686   0.00049   0.00000   0.00264   0.00265   2.27951
    A2        2.12812  -0.00141   0.00000  -0.00896  -0.00895   2.11918
    A3        1.87819   0.00092   0.00000   0.00631   0.00629   1.88448
    A4        2.29101   0.00127   0.00000   0.00609   0.00610   2.29712
    A5        1.86134  -0.00037   0.00000   0.00114   0.00112   1.86246
    A6        2.13080  -0.00090   0.00000  -0.00723  -0.00722   2.12358
    A7        2.18746  -0.00262   0.00000  -0.00989  -0.00991   2.17756
    A8        2.19507  -0.00257   0.00000  -0.00962  -0.00963   2.18544
    A9        1.90063   0.00519   0.00000   0.01952   0.01955   1.92017
   A10        1.89913  -0.00291   0.00000  -0.01493  -0.01492   1.88420
   A11        2.25317   0.00214   0.00000   0.01168   0.01168   2.26485
   A12        2.13089   0.00077   0.00000   0.00325   0.00324   2.13413
   A13        1.88548  -0.00282   0.00000  -0.01204  -0.01203   1.87345
   A14        2.19961   0.00136   0.00000   0.00580   0.00580   2.20541
   A15        2.19676   0.00146   0.00000   0.00618   0.00618   2.20293
   A16        1.87655  -0.00123   0.00000  -0.00608  -0.00613   1.87043
   A17        1.86979  -0.00122   0.00000  -0.00516  -0.00523   1.86455
   A18        1.94543   0.00290   0.00000   0.01543   0.01539   1.96083
   A19        1.88970  -0.00017   0.00000  -0.00957  -0.00960   1.88009
   A20        1.94180  -0.00028   0.00000   0.00130   0.00131   1.94310
   A21        1.93755  -0.00014   0.00000   0.00296   0.00295   1.94050
   A22        1.91262   0.00035   0.00000   0.00151   0.00150   1.91412
   A23        1.93179   0.00093   0.00000   0.00595   0.00594   1.93773
   A24        1.92747   0.00093   0.00000   0.00608   0.00606   1.93353
   A25        1.89580  -0.00074   0.00000  -0.00530  -0.00530   1.89050
   A26        1.89862  -0.00071   0.00000  -0.00485  -0.00485   1.89376
   A27        1.89692  -0.00082   0.00000  -0.00379  -0.00382   1.89310
   A28        3.00882  -0.00029   0.00000  -0.05331  -0.05331   2.95550
   A29        3.13603  -0.00002   0.00000  -0.00395  -0.00395   3.13207
    D1       -0.00090   0.00004   0.00000   0.00159   0.00159   0.00069
    D2       -3.13323   0.00003   0.00000   0.00113   0.00114  -3.13210
    D3        3.13491   0.00001   0.00000   0.00061   0.00061   3.13553
    D4        0.00258  -0.00001   0.00000   0.00016   0.00016   0.00274
    D5        3.13636  -0.00004   0.00000  -0.00126  -0.00126   3.13510
    D6       -0.00515  -0.00001   0.00000  -0.00063  -0.00062  -0.00577
    D7       -0.00005  -0.00001   0.00000  -0.00043  -0.00043  -0.00048
    D8       -3.14155   0.00001   0.00000   0.00020   0.00021  -3.14135
    D9       -0.00417   0.00004   0.00000   0.00021   0.00021  -0.00395
   D10       -3.09263   0.00000   0.00000   0.00115   0.00115  -3.09148
   D11       -3.13755   0.00001   0.00000  -0.00027  -0.00027  -3.13781
   D12        0.05718  -0.00002   0.00000   0.00067   0.00067   0.05785
   D13       -3.13736  -0.00000   0.00000  -0.00049  -0.00049  -3.13785
   D14        0.00415  -0.00003   0.00000  -0.00107  -0.00107   0.00308
   D15       -0.00260   0.00003   0.00000   0.00053   0.00053  -0.00207
   D16        3.13891   0.00000   0.00000  -0.00005  -0.00004   3.13886
   D17        3.13893  -0.00000   0.00000   0.00059   0.00059   3.13952
   D18       -0.05568   0.00003   0.00000  -0.00036  -0.00036  -0.05604
   D19        0.00421  -0.00003   0.00000  -0.00044  -0.00044   0.00378
   D20        3.09278  -0.00000   0.00000  -0.00138  -0.00138   3.09140
   D21       -0.74228  -0.00079   0.00000  -0.01495  -0.01492  -0.75720
   D22       -2.77016   0.00064   0.00000   0.00180   0.00177  -2.76839
   D23        1.39022  -0.00014   0.00000  -0.00780  -0.00780   1.38242
   D24        2.46166  -0.00070   0.00000  -0.01332  -0.01329   2.44837
   D25        0.43379   0.00073   0.00000   0.00342   0.00340   0.43719
   D26       -1.68901  -0.00006   0.00000  -0.00617  -0.00617  -1.69519
   D27        3.13849   0.00005   0.00000   0.00208   0.00209   3.14058
   D28       -1.05423  -0.00006   0.00000   0.00021   0.00021  -1.05403
   D29        1.04724   0.00012   0.00000   0.00333   0.00335   1.05059
   D30       -1.05027   0.00026   0.00000   0.00568   0.00569  -1.04458
   D31        1.04019   0.00015   0.00000   0.00381   0.00381   1.04401
   D32       -3.14152   0.00033   0.00000   0.00693   0.00695  -3.13456
   D33        1.05549  -0.00025   0.00000  -0.00358  -0.00360   1.05188
   D34       -3.13723  -0.00036   0.00000  -0.00546  -0.00548   3.14047
   D35       -1.03576  -0.00017   0.00000  -0.00233  -0.00234  -1.03810
         Item               Value     Threshold  Converged?
 Maximum Force            0.015048     0.000450     NO 
 RMS     Force            0.003521     0.000300     NO 
 Maximum Displacement     0.165429     0.001800     NO 
 RMS     Displacement     0.027135     0.001200     NO 
 Predicted change in Energy=-1.605230D-03
 GradGradGradGradGradGradGradGradGradGradGradGradGradGradGradGradGradGrad

                          Input orientation:                          
 ---------------------------------------------------------------------
 Center     Atomic      Atomic             Coordinates (Angstroms)
 Number     Number       Type             X           Y           Z
 ---------------------------------------------------------------------
      1          6           0       -0.215615    1.615101    0.174376
      2          1           0       -0.782119    2.497463    0.425902
      3          6           0        1.126844    1.443899   -0.014051
      4          1           0        1.951810    2.136501    0.040130
      5          6           0        0.105319   -0.482749   -0.322510
      6          1           0       -0.079561   -1.524738   -0.533881
      7          7           0       -0.829044    0.402795   -0.022622
      8          7           0        1.317318    0.109868   -0.331835
      9          6           0        2.609444   -0.556225   -0.563406
     10          1           0        3.210704    0.112979   -1.183427
     11          1           0        2.401691   -1.454634   -1.148710
     12          6           0        3.328592   -0.901171    0.742688
     13          1           0        4.279462   -1.393452    0.520442
     14          1           0        3.536232   -0.000182    1.325820
     15          1           0        2.722693   -1.576199    1.352431
     16         17           0       -3.482740   -0.578251    0.074254
     17          1           0       -1.959709    0.118636    0.041887
 ---------------------------------------------------------------------
                    Distance matrix (angstroms):
                    1          2          3          4          5
     1  C    0.000000
     2  H    1.078310   0.000000
     3  C    1.366386   2.224341   0.000000
     4  H    2.233296   2.784507   1.078518   0.000000
     5  C    2.179650   3.198332   2.202415   3.225136   0.000000
     6  H    3.221603   4.194385   3.246296   4.226183   1.079165
     7  N    1.372876   2.142663   2.215731   3.277623   1.321800
     8  N    2.207230   3.268396   1.384524   2.155963   1.349157
     9  C    3.638673   4.669737   2.549587   2.836814   2.516758
    10  H    3.979908   4.921214   2.735190   2.678908   3.277116
    11  H    4.245483   5.313673   3.363656   3.809460   2.626878
    12  C    4.383607   5.343127   3.304497   3.408308   3.420411
    13  H    5.420044   6.384964   4.274956   4.255494   4.354700
    14  H    4.243974   5.069146   3.112198   2.954455   3.836799
    15  H    4.495094   5.453154   3.678995   4.012547   3.294193
    16  Cl   3.936359   4.108165   5.034396   6.074979   3.611192
    17  H    2.301918   2.681977   3.359503   4.401336   2.181466
                    6          7          8          9         10
     6  H    0.000000
     7  N    2.130374   0.000000
     8  N    2.159636   2.188216   0.000000
     9  C    2.858257   3.610452   1.472038   0.000000
    10  H    3.732275   4.213197   2.076085   1.092600   0.000000
    11  H    2.557253   3.893040   2.071429   1.092191   1.764404
    12  C    3.692421   4.424021   2.494398   1.530373   2.179981
    13  H    4.486637   5.442265   3.429379   2.159777   2.512916
    14  H    4.342432   4.586536   2.771914   2.176533   2.532803
    15  H    3.378380   4.292088   2.766704   2.173386   3.085783
    16  Cl   3.584311   2.830890   4.866104   6.125504   6.845564
    17  H    2.562644   1.167610   3.298280   4.658216   5.313624
                   11         12         13         14         15
    11  H    0.000000
    12  C    2.177809   0.000000
    13  H    2.513133   1.093567   0.000000
    14  H    3.086408   1.093132   1.772633   0.000000
    15  H    2.524585   1.092961   1.774580   1.773805   0.000000
    16  Cl   6.073731   6.851665   7.817634   7.153079   6.413816
    17  H    4.786910   5.431138   6.437599   5.645173   5.149261
                   16         17
    16  Cl   0.000000
    17  H    1.675208   0.000000
 Stoichiometry    C5H9ClN2
 Framework group  C1[X(C5H9ClN2)]
 Deg. of freedom    45
 Full point group                 C1      NOp   1
 Largest Abelian subgroup         C1      NOp   1
 Largest concise Abelian subgroup C1      NOp   1
                         Standard orientation:                         
 ---------------------------------------------------------------------
 Center     Atomic      Atomic             Coordinates (Angstroms)
 Number     Number       Type             X           Y           Z
 ---------------------------------------------------------------------
      1          6           0       -0.221097    1.625215    0.181039
      2          1           0       -0.780329    2.511158    0.436218
      3          6           0        1.119218    1.445069   -0.014191
      4          1           0        1.949139    2.131986    0.036581
      5          6           0        0.083085   -0.474272   -0.319461
      6          1           0       -0.109929   -1.514766   -0.530925
      7          7           0       -0.843732    0.417310   -0.014098
      8          7           0        1.299031    0.110092   -0.334205
      9          6           0        2.585431   -0.564547   -0.572809
     10          1           0        3.188166    0.101172   -1.195147
     11          1           0        2.368676   -1.460934   -1.157949
     12          6           0        3.308655   -0.915688    0.729378
     13          1           0        4.255041   -1.414206    0.501955
     14          1           0        3.525304   -0.016718    1.312348
     15          1           0        2.701191   -1.587188    1.341456
     16         17           0       -3.503537   -0.545751    0.094949
     17          1           0       -1.975975    0.140787    0.055726
 ---------------------------------------------------------------------
 Rotational constants (GHZ):           3.9810448           0.6553765           0.5901634
 Standard basis: 6-31G(d,p) (6D, 7F)
 There are   169 symmetry adapted cartesian basis functions of A   symmetry.
 There are   169 symmetry adapted basis functions of A   symmetry.
   169 basis functions,   311 primitive gaussians,   169 cartesian basis functions
    35 alpha electrons       35 beta electrons
       nuclear repulsion energy       413.4350217429 Hartrees.
 NAtoms=   17 NActive=   17 NUniq=   17 SFac= 1.00D+00 NAtFMM=   60 NAOKFM=F Big=F
 Integral buffers will be    131072 words long.
 Raffenetti 2 integral format.
 Two-electron integral symmetry is turned on.
 One-electron integrals computed using PRISM.
 NBasis=   169 RedAO= T EigKep=  1.43D-03  NBF=   169
 NBsUse=   169 1.00D-06 EigRej= -1.00D+00 NBFU=   169
 Initial guess from the checkpoint file:  "ehim_cl_631gdp_opt.chk"
 B after Tr=     0.000000   -0.000000    0.000000
         Rot=    0.999996   -0.002506   -0.000838   -0.000297 Ang=  -0.30 deg.
 ExpMin= 1.43D-01 ExpMax= 2.52D+04 ExpMxC= 3.78D+03 IAcc=3 IRadAn=         5 AccDes= 0.00D+00
 Harris functional with IExCor=  402 and IRadAn=       5 diagonalized for initial guess.
 HarFok:  IExCor=  402 AccDes= 0.00D+00 IRadAn=         5 IDoV= 1 UseB2=F ITyADJ=14
 ICtDFT=  3500011 ScaDFX=  1.000000  1.000000  1.000000  1.000000
 FoFCou: FMM=F IPFlag=           0 FMFlag=      100000 FMFlg1=           0
         NFxFlg=           0 DoJE=T BraDBF=F KetDBF=T FulRan=T
         wScrn=  0.000000 ICntrl=       500 IOpCl=  0 I1Cent=   200000004 NGrid=           0
         NMat0=    1 NMatS0=      1 NMatT0=    0 NMatD0=    1 NMtDS0=    0 NMtDT0=    0
 Petite list used in FoFCou.
 Keep R1 ints in memory in canonical form, NReq=105641762.
 Requested convergence on RMS density matrix=1.00D-09 within 128 cycles.
 Requested convergence on MAX density matrix=1.00D-07.
 Requested convergence on             energy=1.00D-07.
 No special actions if energy rises.
 Integral accuracy reduced to 1.0D-05 until final iterations.
 Initial convergence to 1.0D-05 achieved.  Increase integral accuracy.
 SCF Done:  E(RB3LYP) =  -765.673570643     A.U. after   13 cycles
            NFock= 13  Conv=0.83D-09     -V/T= 2.0058
 Calling FoFJK, ICntrl=      2127 FMM=F ISym2X=0 I1Cent= 0 IOpClX= 0 NMat=1 NMatS=1 NMatT=0.
 ***** Axes restored to original set *****
 -------------------------------------------------------------------
 Center     Atomic                   Forces (Hartrees/Bohr)
 Number     Number              X              Y              Z
 -------------------------------------------------------------------
      1        6          -0.001309390    0.000168952    0.000282576
      2        1           0.000350174    0.000425755    0.000002409
      3        6           0.001877897    0.001175561    0.000114742
      4        1          -0.000076369    0.000160495    0.000078145
      5        6          -0.000679249   -0.002739520   -0.000521808
      6        1          -0.000133661   -0.000303590   -0.000016313
      7        7           0.007079068    0.004710561    0.000074724
      8        7          -0.000080409   -0.000144038   -0.000170948
      9        6          -0.002140788    0.000833876    0.002224307
     10        1           0.000542343   -0.000284752   -0.000549988
     11        1           0.000524819   -0.000236092   -0.000419954
     12        6          -0.000637799    0.000335446   -0.001767711
     13        1           0.000084119   -0.000023214    0.000133485
     14        1           0.000210730   -0.000047733    0.000342354
     15        1           0.000164567   -0.000131622    0.000336241
     16       17           0.002214823    0.001701278    0.000055544
     17        1          -0.007990875   -0.005601362   -0.000197805
 -------------------------------------------------------------------
 Cartesian Forces:  Max     0.007990875 RMS     0.002011111

 GradGradGradGradGradGradGradGradGradGradGradGradGradGradGradGradGradGrad
 Berny optimization.
 Using GEDIIS/GDIIS optimizer.
 FormGI is forming the generalized inverse of G from B-inverse, IUseBI=4.
 Internal  Forces:  Max     0.006534638 RMS     0.000961142
 Search for a local minimum.
 Step number   2 out of a maximum of   91
 All quantities printed in internal units (Hartrees-Bohrs-Radians)
 Mixed Optimization -- En-DIIS/RFO-DIIS
 Update second derivatives using D2CorX and points    1    2
 DE= -1.62D-03 DEPred=-1.61D-03 R= 1.01D+00
 TightC=F SS=  1.41D+00  RLast= 1.37D-01 DXNew= 5.0454D-01 4.1012D-01
 Trust test= 1.01D+00 RLast= 1.37D-01 DXMaxT set to 4.10D-01
 ITU=  1  0
 Use linear search instead of GDIIS.
     Eigenvalues ---    0.00230   0.00246   0.00259   0.00560   0.01332
     Eigenvalues ---    0.01970   0.02045   0.02163   0.02279   0.02304
     Eigenvalues ---    0.02413   0.04080   0.05094   0.05470   0.05617
     Eigenvalues ---    0.08229   0.09484   0.12779   0.15767   0.15999
     Eigenvalues ---    0.16000   0.16000   0.16000   0.16000   0.16136
     Eigenvalues ---    0.21830   0.22153   0.23604   0.24940   0.27505
     Eigenvalues ---    0.29090   0.33744   0.34298   0.34370   0.34398
     Eigenvalues ---    0.34481   0.34532   0.36611   0.36700   0.36777
     Eigenvalues ---    0.41626   0.44853   0.49056   0.53175   0.57747
 RFO step:  Lambda=-1.46138943D-03 EMin= 2.29999397D-03
 Quartic linear search produced a step of  0.00480.
 Maximum step size (   0.410) exceeded in Quadratic search.
    -- Step size scaled by   0.768
 Iteration  1 RMS(Cart)=  0.05711744 RMS(Int)=  0.02321075
 Iteration  2 RMS(Cart)=  0.05890675 RMS(Int)=  0.00590998
 Iteration  3 RMS(Cart)=  0.00589674 RMS(Int)=  0.00000805
 Iteration  4 RMS(Cart)=  0.00001608 RMS(Int)=  0.00000485
 Iteration  5 RMS(Cart)=  0.00000000 RMS(Int)=  0.00000485
 Variable       Old X    -DE/DX   Delta X   Delta X   Delta X     New X
                                 (Linear)    (Quad)   (Total)
    R1        2.03771   0.00016   0.00004   0.00348   0.00352   2.04123
    R2        2.58210   0.00087  -0.00003  -0.00093  -0.00096   2.58114
    R3        2.59436   0.00071  -0.00015  -0.01055  -0.01070   2.58366
    R4        2.03810   0.00005   0.00004   0.00298   0.00301   2.04112
    R5        2.61637   0.00102  -0.00014  -0.00910  -0.00924   2.60713
    R6        2.03933   0.00032   0.00004   0.00369   0.00373   2.04306
    R7        2.49784   0.00024  -0.00010  -0.00733  -0.00743   2.49041
    R8        2.54954   0.00024  -0.00010  -0.00774  -0.00784   2.54169
    R9        2.20646   0.00653  -0.00005   0.01493   0.01488   2.22134
   R10        2.78175  -0.00135  -0.00012  -0.01256  -0.01268   2.76906
   R11        2.06471   0.00044  -0.00000   0.00079   0.00079   2.06550
   R12        2.06394   0.00032  -0.00001   0.00022   0.00021   2.06415
   R13        2.89199  -0.00093  -0.00007  -0.00806  -0.00813   2.88385
   R14        2.06654   0.00006  -0.00001  -0.00055  -0.00056   2.06599
   R15        2.06572   0.00018  -0.00001  -0.00014  -0.00015   2.06558
   R16        2.06540   0.00018  -0.00001  -0.00012  -0.00012   2.06528
   R17        3.16568  -0.00272  -0.00046  -0.05651  -0.05697   3.10872
    A1        2.27951  -0.00034   0.00001  -0.00100  -0.00098   2.27853
    A2        2.11918   0.00073  -0.00004  -0.00013  -0.00017   2.11900
    A3        1.88448  -0.00038   0.00003   0.00112   0.00115   1.88563
    A4        2.29712   0.00017   0.00003   0.00237   0.00241   2.29952
    A5        1.86246  -0.00071   0.00001  -0.00165  -0.00164   1.86081
    A6        2.12358   0.00054  -0.00003  -0.00073  -0.00076   2.12282
    A7        2.17756   0.00051  -0.00005  -0.00193  -0.00198   2.17558
    A8        2.18544   0.00068  -0.00005  -0.00100  -0.00104   2.18440
    A9        1.92017  -0.00119   0.00009   0.00292   0.00302   1.92319
   A10        1.88420   0.00112  -0.00007  -0.00179  -0.00186   1.88235
   A11        2.26485   0.00111   0.00006   0.01052   0.01057   2.27543
   A12        2.13413  -0.00223   0.00002  -0.00873  -0.00872   2.12541
   A13        1.87345   0.00117  -0.00006  -0.00062  -0.00067   1.87278
   A14        2.20541  -0.00034   0.00003   0.00100   0.00103   2.20643
   A15        2.20293  -0.00083   0.00003  -0.00039  -0.00037   2.20257
   A16        1.87043   0.00013  -0.00003   0.00027   0.00023   1.87066
   A17        1.86455   0.00012  -0.00003   0.00056   0.00052   1.86508
   A18        1.96083   0.00048   0.00007   0.00867   0.00872   1.96955
   A19        1.88009  -0.00023  -0.00005  -0.00830  -0.00835   1.87174
   A20        1.94310  -0.00027   0.00001  -0.00131  -0.00132   1.94179
   A21        1.94050  -0.00023   0.00001  -0.00046  -0.00047   1.94003
   A22        1.91412   0.00004   0.00001   0.00048   0.00049   1.91460
   A23        1.93773   0.00041   0.00003   0.00430   0.00432   1.94204
   A24        1.93353   0.00041   0.00003   0.00433   0.00435   1.93788
   A25        1.89050  -0.00027  -0.00003  -0.00351  -0.00354   1.88696
   A26        1.89376  -0.00025  -0.00002  -0.00324  -0.00326   1.89050
   A27        1.89310  -0.00037  -0.00002  -0.00273  -0.00276   1.89034
   A28        2.95550   0.00201  -0.00026   0.40392   0.40367   3.35917
   A29        3.13207   0.00012  -0.00002   0.02495   0.02493   3.15701
    D1        0.00069   0.00002   0.00001   0.00124   0.00124   0.00194
    D2       -3.13210   0.00003   0.00001   0.00143   0.00143  -3.13066
    D3        3.13553  -0.00000   0.00000   0.00008   0.00009   3.13561
    D4        0.00274   0.00001   0.00000   0.00028   0.00028   0.00301
    D5        3.13510  -0.00000  -0.00001  -0.00052  -0.00053   3.13457
    D6       -0.00577  -0.00002  -0.00000  -0.00095  -0.00096  -0.00673
    D7       -0.00048   0.00002  -0.00000   0.00050   0.00050   0.00002
    D8       -3.14135   0.00000   0.00000   0.00008   0.00008  -3.14127
    D9       -0.00395  -0.00004   0.00000  -0.00094  -0.00093  -0.00489
   D10       -3.09148  -0.00001   0.00001  -0.00069  -0.00069  -3.09217
   D11       -3.13781  -0.00003  -0.00000  -0.00079  -0.00079  -3.13860
   D12        0.05785  -0.00000   0.00000  -0.00054  -0.00054   0.05730
   D13       -3.13785  -0.00002  -0.00000  -0.00064  -0.00064  -3.13849
   D14        0.00308   0.00000  -0.00001  -0.00024  -0.00025   0.00284
   D15       -0.00207  -0.00004   0.00000  -0.00112  -0.00112  -0.00319
   D16        3.13886  -0.00003  -0.00000  -0.00073  -0.00073   3.13813
   D17        3.13952   0.00002   0.00000   0.00081   0.00081   3.14033
   D18       -0.05604   0.00001  -0.00000   0.00062   0.00062  -0.05542
   D19        0.00378   0.00005  -0.00000   0.00130   0.00130   0.00507
   D20        3.09140   0.00004  -0.00001   0.00111   0.00111   3.09251
   D21       -0.75720  -0.00010  -0.00007  -0.01157  -0.01164  -0.76884
   D22       -2.76839   0.00004   0.00001  -0.00242  -0.00240  -2.77079
   D23        1.38242  -0.00004  -0.00004  -0.00756  -0.00760   1.37482
   D24        2.44837  -0.00013  -0.00006  -0.01129  -0.01136   2.43702
   D25        0.43719   0.00001   0.00002  -0.00214  -0.00211   0.43507
   D26       -1.69519  -0.00007  -0.00003  -0.00728  -0.00731  -1.70250
   D27        3.14058   0.00001   0.00001   0.00136   0.00137  -3.14124
   D28       -1.05403  -0.00004   0.00000   0.00001   0.00001  -1.05402
   D29        1.05059   0.00005   0.00002   0.00234   0.00236   1.05295
   D30       -1.04458   0.00032   0.00003   0.00678   0.00680  -1.03778
   D31        1.04401   0.00027   0.00002   0.00543   0.00544   1.04945
   D32       -3.13456   0.00035   0.00003   0.00776   0.00779  -3.12677
   D33        1.05188  -0.00030  -0.00002  -0.00494  -0.00495   1.04693
   D34        3.14047  -0.00035  -0.00003  -0.00629  -0.00632   3.13415
   D35       -1.03810  -0.00027  -0.00001  -0.00395  -0.00396  -1.04206
         Item               Value     Threshold  Converged?
 Maximum Force            0.006535     0.000450     NO 
 RMS     Force            0.000961     0.000300     NO 
 Maximum Displacement     0.841087     0.001800     NO 
 RMS     Displacement     0.114677     0.001200     NO 
 Predicted change in Energy=-8.141634D-04
 GradGradGradGradGradGradGradGradGradGradGradGradGradGradGradGradGradGrad

                          Input orientation:                          
 ---------------------------------------------------------------------
 Center     Atomic      Atomic             Coordinates (Angstroms)
 Number     Number       Type             X           Y           Z
 ---------------------------------------------------------------------
      1          6           0       -0.254324    1.534166    0.169946
      2          1           0       -0.849173    2.399591    0.422863
      3          6           0        1.093949    1.403881   -0.005584
      4          1           0        1.900650    2.118825    0.063204
      5          6           0        0.131637   -0.539994   -0.339534
      6          1           0       -0.022103   -1.586822   -0.561740
      7          7           0       -0.829074    0.312094   -0.043296
      8          7           0        1.323485    0.083296   -0.332331
      9          6           0        2.629036   -0.543140   -0.556592
     10          1           0        3.214041    0.142284   -1.175180
     11          1           0        2.451015   -1.442886   -1.149795
     12          6           0        3.357908   -0.875150    0.742408
     13          1           0        4.322082   -1.338138    0.516006
     14          1           0        3.543697    0.024954    1.334070
     15          1           0        2.776644   -1.572248    1.351185
     16         17           0       -3.591866   -0.133167    0.137663
     17          1           0       -1.956284   -0.017906    0.004193
 ---------------------------------------------------------------------
                    Distance matrix (angstroms):
                    1          2          3          4          5
     1  C    0.000000
     2  H    1.080173   0.000000
     3  C    1.365879   2.225023   0.000000
     4  H    2.235427   2.787419   1.080113   0.000000
     5  C    2.170409   3.191300   2.194587   3.218838   0.000000
     6  H    3.214010   4.188673   3.240245   4.221298   1.081139
     7  N    1.367212   2.139007   2.211659   3.275211   1.317868
     8  N    2.201542   3.264350   1.379635   2.152428   1.345007
     9  C    3.627234   4.660144   2.539880   2.828560   2.506816
    10  H    3.971934   4.915169   2.730270   2.676809   3.265734
    11  H    4.233605   5.303690   3.354836   3.802638   2.617489
    12  C    4.379582   5.340934   3.298331   3.398354   3.419320
    13  H    5.414183   6.381314   4.267501   4.244874   4.350725
    14  H    4.249455   5.076072   3.114061   2.949406   3.842170
    15  H    4.497989   5.457458   3.678265   4.006281   3.304564
    16  Cl   3.730982   3.744138   4.933548   5.936728   3.775937
    17  H    2.309344   2.691705   3.365337   4.409653   2.179481
                    6          7          8          9         10
     6  H    0.000000
     7  N    2.127410   0.000000
     8  N    2.156973   2.183895   0.000000
     9  C    2.849182   3.599087   1.465326   0.000000
    10  H    3.720047   4.201997   2.070768   1.093018   0.000000
    11  H    2.546142   3.881144   2.066108   1.092302   1.759437
    12  C    3.692120   4.422409   2.492501   1.526069   2.175550
    13  H    4.482781   5.437876   3.425162   2.156129   2.505896
    14  H    4.348201   4.593551   2.776624   2.175762   2.533531
    15  H    3.390056   4.300759   2.772495   2.172663   3.084390
    16  Cl   3.917332   2.804286   4.942512   6.272933   6.936844
    17  H    2.553984   1.175482   3.298541   4.649248   5.305548
                   11         12         13         14         15
    11  H    0.000000
    12  C    2.173755   0.000000
    13  H    2.507341   1.093273   0.000000
    14  H    3.085141   1.093055   1.770066   0.000000
    15  H    2.525405   1.092897   1.772205   1.771925   0.000000
    16  Cl   6.315799   7.015384   8.014092   7.236895   6.640897
    17  H    4.773524   5.433274   6.436057   5.658639   5.160521
                   16         17
    16  Cl   0.000000
    17  H    1.645062   0.000000
 Stoichiometry    C5H9ClN2
 Framework group  C1[X(C5H9ClN2)]
 Deg. of freedom    45
 Full point group                 C1      NOp   1
 Largest Abelian subgroup         C1      NOp   1
 Largest concise Abelian subgroup C1      NOp   1
                         Standard orientation:                         
 ---------------------------------------------------------------------
 Center     Atomic      Atomic             Coordinates (Angstroms)
 Number     Number       Type             X           Y           Z
 ---------------------------------------------------------------------
      1          6           0       -0.342665    1.444077    0.140226
      2          1           0       -0.993562    2.272423    0.378866
      3          6           0        1.011981    1.399282   -0.028753
      4          1           0        1.770242    2.166027    0.032780
      5          6           0        0.179407   -0.607453   -0.338669
      6          1           0        0.094948   -1.665030   -0.546658
      7          7           0       -0.835901    0.184405   -0.057800
      8          7           0        1.328221    0.092020   -0.336083
      9          6           0        2.672669   -0.451278   -0.546955
     10          1           0        3.214640    0.262106   -1.173085
     11          1           0        2.556057   -1.368801   -1.128056
     12          6           0        3.415849   -0.717238    0.759120
     13          1           0        4.409039   -1.119665    0.542617
     14          1           0        3.540195    0.201127    1.338702
     15          1           0        2.878412   -1.442163    1.375617
     16         17           0       -3.564715   -0.436934    0.119776
     17          1           0       -1.939499   -0.217471   -0.009602
 ---------------------------------------------------------------------
 Rotational constants (GHZ):           4.6727614           0.6293392           0.5819011
 Standard basis: 6-31G(d,p) (6D, 7F)
 There are   169 symmetry adapted cartesian basis functions of A   symmetry.
 There are   169 symmetry adapted basis functions of A   symmetry.
   169 basis functions,   311 primitive gaussians,   169 cartesian basis functions
    35 alpha electrons       35 beta electrons
       nuclear repulsion energy       413.9599774981 Hartrees.
 NAtoms=   17 NActive=   17 NUniq=   17 SFac= 1.00D+00 NAtFMM=   60 NAOKFM=F Big=F
 Integral buffers will be    131072 words long.
 Raffenetti 2 integral format.
 Two-electron integral symmetry is turned on.
 One-electron integrals computed using PRISM.
 NBasis=   169 RedAO= T EigKep=  1.38D-03  NBF=   169
 NBsUse=   169 1.00D-06 EigRej= -1.00D+00 NBFU=   169
 Initial guess from the checkpoint file:  "ehim_cl_631gdp_opt.chk"
 B after Tr=    -0.000000    0.000000   -0.000000
         Rot=    0.999804    0.017209    0.000937   -0.009726 Ang=   2.27 deg.
 ExpMin= 1.43D-01 ExpMax= 2.52D+04 ExpMxC= 3.78D+03 IAcc=3 IRadAn=         5 AccDes= 0.00D+00
 Harris functional with IExCor=  402 and IRadAn=       5 diagonalized for initial guess.
 HarFok:  IExCor=  402 AccDes= 0.00D+00 IRadAn=         5 IDoV= 1 UseB2=F ITyADJ=14
 ICtDFT=  3500011 ScaDFX=  1.000000  1.000000  1.000000  1.000000
 FoFCou: FMM=F IPFlag=           0 FMFlag=      100000 FMFlg1=           0
         NFxFlg=           0 DoJE=T BraDBF=F KetDBF=T FulRan=T
         wScrn=  0.000000 ICntrl=       500 IOpCl=  0 I1Cent=   200000004 NGrid=           0
         NMat0=    1 NMatS0=      1 NMatT0=    0 NMatD0=    1 NMtDS0=    0 NMtDT0=    0
 Petite list used in FoFCou.
 Keep R1 ints in memory in canonical form, NReq=105641762.
 Requested convergence on RMS density matrix=1.00D-09 within 128 cycles.
 Requested convergence on MAX density matrix=1.00D-07.
 Requested convergence on             energy=1.00D-07.
 No special actions if energy rises.
 Integral accuracy reduced to 1.0D-05 until final iterations.
 Initial convergence to 1.0D-05 achieved.  Increase integral accuracy.
 SCF Done:  E(RB3LYP) =  -765.671840460     A.U. after   14 cycles
            NFock= 14  Conv=0.62D-09     -V/T= 2.0056
 Calling FoFJK, ICntrl=      2127 FMM=F ISym2X=0 I1Cent= 0 IOpClX= 0 NMat=1 NMatS=1 NMatT=0.
 ***** Axes restored to original set *****
 -------------------------------------------------------------------
 Center     Atomic                   Forces (Hartrees/Bohr)
 Number     Number              X              Y              Z
 -------------------------------------------------------------------
      1        6          -0.004432263    0.006353866    0.001944137
      2        1           0.000522097   -0.000851295   -0.000265331
      3        6           0.002947598    0.004670916    0.000747763
      4        1          -0.001228939   -0.000370025    0.000055254
      5        6           0.000153359   -0.008030526   -0.001875710
      6        1           0.001259216    0.000843970    0.000056837
      7        7           0.008446050   -0.008051092   -0.002282895
      8        7           0.003120666   -0.001411260   -0.000190048
      9        6           0.000449549    0.000086126   -0.001370150
     10        1           0.000746918   -0.000140296   -0.000257890
     11        1           0.000443652   -0.000567861   -0.000191411
     12        6           0.000401575   -0.000152757    0.000570105
     13        1           0.000281546   -0.000133496   -0.000097852
     14        1           0.000016750    0.000254843    0.000203705
     15        1          -0.000188147   -0.000185361    0.000243898
     16       17          -0.000347325   -0.003649092   -0.000572440
     17        1          -0.012592303    0.011333340    0.003282029
 -------------------------------------------------------------------
 Cartesian Forces:  Max     0.012592303 RMS     0.003533401

 GradGradGradGradGradGradGradGradGradGradGradGradGradGradGradGradGradGrad
 Berny optimization.
 Using GEDIIS/GDIIS optimizer.
 FormGI is forming the generalized inverse of G from B-inverse, IUseBI=4.
 Internal  Forces:  Max     0.011376254 RMS     0.002444971
 Search for a local minimum.
 Step number   3 out of a maximum of   91
 All quantities printed in internal units (Hartrees-Bohrs-Radians)
 Mixed Optimization -- RFO/linear search
 Update second derivatives using D2CorX and points    1    3    2
 DE=  1.73D-03 DEPred=-8.14D-04 R=-2.13D+00
 Trust test=-2.13D+00 RLast= 4.11D-01 DXMaxT set to 2.05D-01
 ITU= -1  1  0
 Use linear search instead of GDIIS.
     Eigenvalues ---    0.00230   0.00259   0.00558   0.01331   0.01971
     Eigenvalues ---    0.02044   0.02160   0.02280   0.02303   0.02412
     Eigenvalues ---    0.02773   0.04011   0.04882   0.05423   0.05598
     Eigenvalues ---    0.07268   0.09561   0.12843   0.15839   0.15999
     Eigenvalues ---    0.16000   0.16000   0.16000   0.16045   0.17994
     Eigenvalues ---    0.21682   0.22157   0.23730   0.24636   0.25021
     Eigenvalues ---    0.28850   0.33937   0.34299   0.34369   0.34398
     Eigenvalues ---    0.34481   0.34510   0.36624   0.36705   0.36803
     Eigenvalues ---    0.41633   0.44688   0.48953   0.53181   0.58831
 RFO step:  Lambda=-4.30289006D-04 EMin= 2.29973044D-03
 Quartic linear search produced a step of -0.78931.
 Iteration  1 RMS(Cart)=  0.05391961 RMS(Int)=  0.01643115
 Iteration  2 RMS(Cart)=  0.04211464 RMS(Int)=  0.00296378
 Iteration  3 RMS(Cart)=  0.00289357 RMS(Int)=  0.00000418
 Iteration  4 RMS(Cart)=  0.00000238 RMS(Int)=  0.00000407
 Iteration  5 RMS(Cart)=  0.00000000 RMS(Int)=  0.00000407
 Variable       Old X    -DE/DX   Delta X   Delta X   Delta X     New X
                                 (Linear)    (Quad)   (Total)
    R1        2.04123  -0.00103  -0.00278   0.00107  -0.00171   2.03952
    R2        2.58114   0.00282   0.00076   0.00229   0.00305   2.58419
    R3        2.58366   0.00376   0.00845  -0.00088   0.00757   2.59122
    R4        2.04112  -0.00116  -0.00238   0.00053  -0.00185   2.03927
    R5        2.60713   0.00548   0.00729   0.00134   0.00863   2.61577
    R6        2.04306  -0.00101  -0.00294   0.00153  -0.00141   2.04165
    R7        2.49041   0.00724   0.00586   0.00031   0.00618   2.49659
    R8        2.54169   0.00518   0.00619  -0.00021   0.00598   2.54767
    R9        2.22134   0.01036  -0.01174   0.03554   0.02380   2.24514
   R10        2.76906   0.00241   0.01001  -0.00661   0.00340   2.77247
   R11        2.06550   0.00046  -0.00062   0.00170   0.00108   2.06658
   R12        2.06415   0.00050  -0.00017   0.00122   0.00105   2.06520
   R13        2.88385   0.00108   0.00642  -0.00504   0.00138   2.88524
   R14        2.06599   0.00032   0.00044   0.00015   0.00059   2.06658
   R15        2.06558   0.00032   0.00011   0.00063   0.00074   2.06632
   R16        2.06528   0.00035   0.00010   0.00064   0.00074   2.06601
   R17        3.10872   0.00055   0.04496  -0.04420   0.00076   3.10948
    A1        2.27853   0.00005   0.00077  -0.00241  -0.00163   2.27689
    A2        2.11900  -0.00006   0.00014   0.00376   0.00389   2.12289
    A3        1.88563   0.00002  -0.00091  -0.00136  -0.00227   1.88337
    A4        2.29952  -0.00095  -0.00190   0.00008  -0.00182   2.29770
    A5        1.86081   0.00077   0.00130  -0.00263  -0.00134   1.85948
    A6        2.12282   0.00018   0.00060   0.00255   0.00315   2.12597
    A7        2.17558   0.00208   0.00156   0.00349   0.00505   2.18063
    A8        2.18440  -0.00024   0.00082   0.00175   0.00257   2.18697
    A9        1.92319  -0.00183  -0.00238  -0.00525  -0.00763   1.91556
   A10        1.88235   0.00086   0.00147   0.00469   0.00616   1.88850
   A11        2.27543  -0.00722  -0.00835   0.00162  -0.00673   2.26870
   A12        2.12541   0.00636   0.00688  -0.00631   0.00057   2.12599
   A13        1.87278   0.00018   0.00053   0.00454   0.00507   1.87785
   A14        2.20643  -0.00023  -0.00081  -0.00124  -0.00205   2.20439
   A15        2.20257   0.00006   0.00029  -0.00328  -0.00299   2.19958
   A16        1.87066   0.00062  -0.00018   0.00433   0.00415   1.87481
   A17        1.86508   0.00050  -0.00041   0.00411   0.00370   1.86878
   A18        1.96955  -0.00057  -0.00689   0.00625  -0.00062   1.96893
   A19        1.87174  -0.00013   0.00659  -0.00924  -0.00266   1.86908
   A20        1.94179  -0.00021   0.00104  -0.00316  -0.00211   1.93967
   A21        1.94003  -0.00015   0.00037  -0.00256  -0.00218   1.93785
   A22        1.91460  -0.00004  -0.00038   0.00003  -0.00036   1.91425
   A23        1.94204   0.00001  -0.00341   0.00400   0.00060   1.94264
   A24        1.93788   0.00005  -0.00344   0.00408   0.00064   1.93853
   A25        1.88696   0.00003   0.00279  -0.00306  -0.00027   1.88669
   A26        1.89050   0.00001   0.00257  -0.00282  -0.00025   1.89025
   A27        1.89034  -0.00005   0.00218  -0.00260  -0.00041   1.88993
   A28        3.35917  -0.01138  -0.31862  -0.01075  -0.32937   3.02981
   A29        3.15701  -0.00055  -0.01968   0.01141  -0.00827   3.14874
    D1        0.00194   0.00002  -0.00098   0.00144   0.00046   0.00240
    D2       -3.13066   0.00003  -0.00113   0.00203   0.00090  -3.12976
    D3        3.13561  -0.00002  -0.00007  -0.00031  -0.00039   3.13523
    D4        0.00301  -0.00001  -0.00022   0.00027   0.00005   0.00307
    D5        3.13457  -0.00002   0.00042  -0.00052  -0.00010   3.13447
    D6       -0.00673   0.00004   0.00075  -0.00090  -0.00015  -0.00687
    D7        0.00002   0.00001  -0.00040   0.00108   0.00069   0.00071
    D8       -3.14127   0.00007  -0.00006   0.00069   0.00064  -3.14063
    D9       -0.00489  -0.00000   0.00074  -0.00151  -0.00078  -0.00566
   D10       -3.09217  -0.00003   0.00054  -0.00192  -0.00138  -3.09355
   D11       -3.13860   0.00001   0.00062  -0.00098  -0.00036  -3.13896
   D12        0.05730  -0.00002   0.00043  -0.00139  -0.00097   0.05634
   D13       -3.13849   0.00002   0.00050  -0.00058  -0.00007  -3.13856
   D14        0.00284  -0.00003   0.00020  -0.00023  -0.00003   0.00280
   D15       -0.00319  -0.00001   0.00088  -0.00206  -0.00118  -0.00437
   D16        3.13813  -0.00006   0.00058  -0.00172  -0.00114   3.13700
   D17        3.14033  -0.00002  -0.00064   0.00075   0.00011   3.14044
   D18       -0.05542  -0.00000  -0.00049   0.00124   0.00075  -0.05467
   D19        0.00507   0.00000  -0.00102   0.00224   0.00121   0.00628
   D20        3.09251   0.00002  -0.00087   0.00273   0.00185   3.09436
   D21       -0.76884   0.00016   0.00919  -0.01473  -0.00553  -0.77438
   D22       -2.77079  -0.00022   0.00190  -0.00813  -0.00625  -2.77703
   D23        1.37482  -0.00003   0.00600  -0.01168  -0.00568   1.36914
   D24        2.43702   0.00013   0.00896  -0.01546  -0.00648   2.43053
   D25        0.43507  -0.00026   0.00167  -0.00886  -0.00720   0.42787
   D26       -1.70250  -0.00006   0.00577  -0.01241  -0.00664  -1.70914
   D27       -3.14124  -0.00003  -0.00108   0.00167   0.00059  -3.14065
   D28       -1.05402  -0.00002  -0.00001   0.00040   0.00040  -1.05362
   D29        1.05295  -0.00005  -0.00186   0.00259   0.00072   1.05367
   D30       -1.03778   0.00022  -0.00537   0.00936   0.00399  -1.03378
   D31        1.04945   0.00023  -0.00429   0.00809   0.00380   1.05325
   D32       -3.12677   0.00020  -0.00615   0.01028   0.00412  -3.12265
   D33        1.04693  -0.00018   0.00391  -0.00610  -0.00219   1.04474
   D34        3.13415  -0.00017   0.00498  -0.00737  -0.00238   3.13177
   D35       -1.04206  -0.00020   0.00313  -0.00519  -0.00206  -1.04412
         Item               Value     Threshold  Converged?
 Maximum Force            0.011376     0.000450     NO 
 RMS     Force            0.002445     0.000300     NO 
 Maximum Displacement     0.681483     0.001800     NO 
 RMS     Displacement     0.093766     0.001200     NO 
 Predicted change in Energy=-4.612384D-04
 GradGradGradGradGradGradGradGradGradGradGradGradGradGradGradGradGradGrad

                          Input orientation:                          
 ---------------------------------------------------------------------
 Center     Atomic      Atomic             Coordinates (Angstroms)
 Number     Number       Type             X           Y           Z
 ---------------------------------------------------------------------
      1          6           0       -0.221607    1.601500    0.178881
      2          1           0       -0.790918    2.483337    0.430011
      3          6           0        1.123362    1.436145   -0.004834
      4          1           0        1.946203    2.131768    0.054909
      5          6           0        0.108492   -0.495271   -0.323160
      6          1           0       -0.071624   -1.538584   -0.538349
      7          7           0       -0.827333    0.388357   -0.025103
      8          7           0        1.316247    0.103791   -0.326779
      9          6           0        2.606097   -0.556092   -0.557656
     10          1           0        3.204262    0.106365   -1.189548
     11          1           0        2.404904   -1.459273   -1.139140
     12          6           0        3.340005   -0.891131    0.738588
     13          1           0        4.291384   -1.378478    0.507725
     14          1           0        3.552404    0.010651    1.319368
     15          1           0        2.749265   -1.568677    1.360868
     16         17           0       -3.514198   -0.493792    0.058946
     17          1           0       -1.975627    0.089024    0.032758
 ---------------------------------------------------------------------
                    Distance matrix (angstroms):
                    1          2          3          4          5
     1  C    0.000000
     2  H    1.079268   0.000000
     3  C    1.367492   2.224898   0.000000
     4  H    2.235162   2.784983   1.079133   0.000000
     5  C    2.181160   3.201298   2.204917   3.228227   0.000000
     6  H    3.224444   4.198923   3.249868   4.230256   1.080393
     7  N    1.371215   2.144154   2.214381   3.276948   1.321137
     8  N    2.205406   3.267279   1.384204   2.157596   1.348169
     9  C    3.632299   4.664046   2.544233   2.834658   2.509327
    10  H    3.980528   4.922848   2.738979   2.689544   3.270533
    11  H    4.243120   5.312221   3.363398   3.812052   2.620808
    12  C    4.383099   5.342919   3.298848   3.398238   3.424426
    13  H    5.418071   6.383529   4.268628   4.245792   4.355113
    14  H    4.251431   5.076374   3.112200   2.945824   3.848946
    15  H    4.502576   5.460605   3.679356   4.005463   3.310866
    16  Cl   3.904586   4.051819   5.023513   6.058841   3.642786
    17  H    2.320673   2.700756   3.379332   4.421996   2.193543
                    6          7          8          9         10
     6  H    0.000000
     7  N    2.132514   0.000000
     8  N    2.160634   2.183327   0.000000
     9  C    2.852341   3.600561   1.467128   0.000000
    10  H    3.723083   4.205855   2.075809   1.093589   0.000000
    11  H    2.549594   3.886151   2.070815   1.092858   1.758618
    12  C    3.699861   4.425722   2.494088   1.526801   2.175117
    13  H    4.489515   5.441220   3.427092   2.156744   2.503463
    14  H    4.357157   4.596994   2.778286   2.177134   2.534763
    15  H    3.400786   4.306152   2.774679   2.174066   3.085030
    16  Cl   3.646871   2.829221   4.882528   6.151592   6.859784
    17  H    2.569144   1.188077   3.311483   4.664436   5.322179
                   11         12         13         14         15
    11  H    0.000000
    12  C    2.173261   0.000000
[...]
 ! D9    D(1,3,8,5)             -0.248          -DE/DX =    0.0                 !
 ! D10   D(1,3,8,9)           -177.3626         -DE/DX =    0.0                 !
 ! D11   D(4,3,8,5)           -179.8033         -DE/DX =    0.0                 !
 ! D12   D(4,3,8,9)              3.082          -DE/DX =    0.0                 !
 ! D13   D(6,5,7,1)           -179.7972         -DE/DX =    0.0                 !
 ! D14   D(6,5,7,17)             0.0702         -DE/DX =    0.0                 !
 ! D15   D(8,5,7,1)             -0.1832         -DE/DX =    0.0                 !
 ! D16   D(8,5,7,17)           179.6842         -DE/DX =    0.0                 !
 ! D17   D(6,5,8,3)            179.9008         -DE/DX =    0.0                 !
 ! D18   D(6,5,8,9)             -2.9777         -DE/DX =    0.0                 !
 ! D19   D(7,5,8,3)              0.2748         -DE/DX =    0.0                 !
 ! D20   D(7,5,8,9)            177.3964         -DE/DX =    0.0                 !
 ! D21   D(3,8,9,10)           -47.1131         -DE/DX =    0.0                 !
 ! D22   D(3,8,9,11)          -162.0857         -DE/DX =    0.0                 !
 ! D23   D(3,8,9,12)            75.7793         -DE/DX =    0.0                 !
 ! D24   D(5,8,9,10)           136.3214         -DE/DX =    0.0                 !
 ! D25   D(5,8,9,11)            21.3488         -DE/DX =    0.0                 !
 ! D26   D(5,8,9,12)          -100.7862         -DE/DX =    0.0                 !
 ! D27   D(8,9,12,13)          179.7461         -DE/DX =    0.0                 !
 ! D28   D(8,9,12,14)          -60.554          -DE/DX =    0.0                 !
 ! D29   D(8,9,12,15)           59.8865         -DE/DX =    0.0                 !
 ! D30   D(10,9,12,13)         -59.0156         -DE/DX =    0.0                 !
 ! D31   D(10,9,12,14)          60.6843         -DE/DX =    0.0                 !
 ! D32   D(10,9,12,15)        -178.8752         -DE/DX =    0.0                 !
 ! D33   D(11,9,12,13)          59.6714         -DE/DX =    0.0                 !
 ! D34   D(11,9,12,14)         179.3713         -DE/DX =    0.0                 !
 ! D35   D(11,9,12,15)         -60.1882         -DE/DX =    0.0                 !
 --------------------------------------------------------------------------------
 GradGradGradGradGradGradGradGradGradGradGradGradGradGradGradGradGradGrad

                          Input orientation:                          
 ---------------------------------------------------------------------
 Center     Atomic      Atomic             Coordinates (Angstroms)
 Number     Number       Type             X           Y           Z
 ---------------------------------------------------------------------
      1          6           0       -0.195413    1.566673    0.185835
      2          1           0       -0.753580    2.452952    0.448182
      3          6           0        1.156668    1.418891    0.018521
      4          1           0        1.975704    2.116098    0.102932
      5          6           0        0.133659   -0.496197   -0.346602
      6          1           0       -0.012188   -1.539249   -0.588778
      7          7           0       -0.820813    0.364097   -0.045371
      8          7           0        1.357413    0.094878   -0.325936
      9          6           0        2.644807   -0.562361   -0.556146
     10          1           0        3.239575    0.082101   -1.210872
     11          1           0        2.441271   -1.482680   -1.110442
     12          6           0        3.398180   -0.866352    0.739273
     13          1           0        4.347763   -1.359537    0.510921
     14          1           0        3.615609    0.050323    1.294690
     15          1           0        2.812913   -1.526366    1.385505
     16         17           0       -3.713675   -0.348584    0.059742
     17          1           0       -2.386573    0.004955    0.016031
 ---------------------------------------------------------------------
                    Distance matrix (angstroms):
                    1          2          3          4          5
     1  C    0.000000
     2  H    1.079754   0.000000
     3  C    1.370386   2.214259   0.000000
     4  H    2.241091   2.771581   1.078908   0.000000
     5  C    2.155739   3.180622   2.201687   3.227894   0.000000
     6  H    3.206298   4.190778   3.238152   4.218026   1.080684
     7  N    1.375053   2.147424   2.242121   3.303334   1.319797
     8  N    2.199854   3.258231   1.382736   2.156744   1.359180
     9  C    3.626316   4.652937   2.543650   2.838349   2.520744
    10  H    3.994231   4.931398   2.763497   2.731409   3.275379
    11  H    4.234500   5.303356   3.368067   3.826256   2.623295
    12  C    4.374907   5.323498   3.281187   3.365023   3.460236
    13  H    5.413763   6.368887   4.259719   4.227666   4.386272
    14  H    4.248854   5.057570   3.089979   2.894305   3.887994
    15  H    4.478406   5.425258   3.645041   3.951387   3.352588
    16  Cl   4.007777   4.094099   5.181304   6.200448   3.871548
    17  H    2.696105   2.974241   3.814942   4.847055   2.595039
                    6          7          8          9         10
     6  H    0.000000
     7  N    2.138198   0.000000
     8  N    2.148317   2.212661   0.000000
     9  C    2.831077   3.623498   1.463674   0.000000
    10  H    3.686426   4.233753   2.079857   1.094416   0.000000
    11  H    2.508943   3.896942   2.068547   1.093462   1.759521
    12  C    3.721172   4.464255   2.494667   1.529082   2.174347
    13  H    4.500090   5.476729   3.428972   2.161986   2.504191
    14  H    4.385784   4.645003   2.779903   2.177942   2.533822
    15  H    3.446615   4.338804   2.770549   2.174299   3.083890
    16  Cl   3.941988   2.981210   5.105031   6.391816   7.081499
    17  H    2.896216   1.607594   3.760647   5.095490   5.758887
                   11         12         13         14         15
    11  H    0.000000
    12  C    2.171861   0.000000
    13  H    2.505732   1.094114   0.000000
    14  H    3.084449   1.093643   1.771454   0.000000
    15  H    2.523841   1.093513   1.774400   1.771586   0.000000
    16  Cl   6.367014   7.162983   8.137099   7.443294   6.763222
    17  H    5.175914   5.894542   6.888980   6.137036   5.590622
                   16         17
    16  Cl   0.000000
    17  H    1.374081   0.000000
 Stoichiometry    C5H9ClN2
 Framework group  C1[X(C5H9ClN2)]
 Deg. of freedom    45
 Full point group                 C1      NOp   1
 Largest Abelian subgroup         C1      NOp   1
 Largest concise Abelian subgroup C1      NOp   1
                         Standard orientation:                         
 ---------------------------------------------------------------------
 Center     Atomic      Atomic             Coordinates (Angstroms)
 Number     Number       Type             X           Y           Z
 ---------------------------------------------------------------------
      1          6           0       -0.212459    1.532558    0.144199
      2          1           0       -0.789684    2.413503    0.382141
      3          6           0        1.141461    1.411435   -0.029544
      4          1           0        1.944179    2.130248    0.025177
      5          6           0        0.161869   -0.538311   -0.323336
      6          1           0        0.039210   -1.591917   -0.530090
      7          7           0       -0.810616    0.308557   -0.042356
      8          7           0        1.371236    0.081951   -0.332256
      9          6           0        2.672213   -0.551808   -0.551680
     10          1           0        3.246371    0.084711   -1.232071
     11          1           0        2.486568   -1.494401   -1.073899
     12          6           0        3.442493   -0.795153    0.746606
     13          1           0        4.401852   -1.272936    0.526517
     14          1           0        3.642124    0.144164    1.269949
     15          1           0        2.878141   -1.447266    1.418935
     16         17           0       -3.684691   -0.468624    0.110252
     17          1           0       -2.366810   -0.085369    0.043881
 ---------------------------------------------------------------------
 Rotational constants (GHZ):           4.3708621           0.6007419           0.5522463

 **********************************************************************

            Population analysis using the SCF Density.

 **********************************************************************

 Orbital symmetries:
       Occupied  (A) (A) (A) (A) (A) (A) (A) (A) (A) (A) (A) (A)
                 (A) (A) (A) (A) (A) (A) (A) (A) (A) (A) (A) (A)
                 (A) (A) (A) (A) (A) (A) (A) (A) (A) (A) (A)
       Virtual   (A) (A) (A) (A) (A) (A) (A) (A) (A) (A) (A) (A)
                 (A) (A) (A) (A) (A) (A) (A) (A) (A) (A) (A) (A)
                 (A) (A) (A) (A) (A) (A) (A) (A) (A) (A) (A) (A)
                 (A) (A) (A) (A) (A) (A) (A) (A) (A) (A) (A) (A)
                 (A) (A) (A) (A) (A) (A) (A) (A) (A) (A) (A) (A)
                 (A) (A) (A) (A) (A) (A) (A) (A) (A) (A) (A) (A)
                 (A) (A) (A) (A) (A) (A) (A) (A) (A) (A) (A) (A)
                 (A) (A) (A) (A) (A) (A) (A) (A) (A) (A) (A) (A)
                 (A) (A) (A) (A) (A) (A) (A) (A) (A) (A) (A) (A)
                 (A) (A) (A) (A) (A) (A) (A) (A) (A) (A) (A) (A)
                 (A) (A) (A) (A) (A) (A) (A) (A) (A) (A) (A) (A)
                 (A) (A)
 The electronic state is 1-A.
 Alpha  occ. eigenvalues -- -101.46962 -14.42131 -14.35187 -10.26576 -10.26573
 Alpha  occ. eigenvalues --  -10.23598 -10.22388 -10.21325  -9.38697  -7.14871
 Alpha  occ. eigenvalues --   -7.14223  -7.14214  -1.04526  -0.91617  -0.79596
 Alpha  occ. eigenvalues --   -0.76556  -0.75733  -0.67998  -0.62357  -0.59993
 Alpha  occ. eigenvalues --   -0.55865  -0.49484  -0.47932  -0.45966  -0.45459
 Alpha  occ. eigenvalues --   -0.43653  -0.41607  -0.41492  -0.40580  -0.38731
 Alpha  occ. eigenvalues --   -0.29955  -0.28649  -0.25888  -0.25796  -0.25323
 Alpha virt. eigenvalues --    0.00094   0.03805   0.06582   0.09765   0.09949
 Alpha virt. eigenvalues --    0.11654   0.12989   0.14043   0.14432   0.15726
 Alpha virt. eigenvalues --    0.15916   0.16763   0.19945   0.21625   0.23781
 Alpha virt. eigenvalues --    0.30967   0.32486   0.42151   0.43667   0.45793
 Alpha virt. eigenvalues --    0.46119   0.47120   0.48366   0.49139   0.49835
 Alpha virt. eigenvalues --    0.50839   0.51922   0.55072   0.57073   0.58031
 Alpha virt. eigenvalues --    0.60186   0.61658   0.63511   0.64865   0.66510
 Alpha virt. eigenvalues --    0.73081   0.74833   0.77664   0.78835   0.80826
 Alpha virt. eigenvalues --    0.81838   0.83729   0.85037   0.85878   0.87090
 Alpha virt. eigenvalues --    0.88062   0.89909   0.90481   0.91363   0.94197
 Alpha virt. eigenvalues --    0.94200   0.95406   0.97265   0.99277   1.02526
 Alpha virt. eigenvalues --    1.06236   1.10360   1.16258   1.21109   1.23805
 Alpha virt. eigenvalues --    1.30485   1.31536   1.34892   1.39897   1.41401
 Alpha virt. eigenvalues --    1.44388   1.45958   1.50737   1.52296   1.58177
 Alpha virt. eigenvalues --    1.59600   1.69792   1.76685   1.81076   1.83559
 Alpha virt. eigenvalues --    1.87008   1.87739   1.91564   1.92380   1.97071
 Alpha virt. eigenvalues --    2.01499   2.02166   2.03565   2.05488   2.08032
 Alpha virt. eigenvalues --    2.09853   2.13631   2.16354   2.17279   2.18107
 Alpha virt. eigenvalues --    2.19696   2.22195   2.22665   2.25448   2.28923
 Alpha virt. eigenvalues --    2.32509   2.39052   2.42451   2.45637   2.48854
 Alpha virt. eigenvalues --    2.49650   2.54775   2.55499   2.56338   2.61141
 Alpha virt. eigenvalues --    2.65383   2.68218   2.68824   2.74327   2.75673
 Alpha virt. eigenvalues --    2.78697   2.82857   2.85448   2.89007   2.92001
 Alpha virt. eigenvalues --    2.98907   3.04114   3.15881   3.17675   3.24643
 Alpha virt. eigenvalues --    3.25476   3.36377   3.42380   3.49331   3.56374
 Alpha virt. eigenvalues --    3.69257   3.99606   4.05254   4.17689   4.33565
 Alpha virt. eigenvalues --    4.37416   4.46588   4.55939   4.66261
          Condensed to atoms (all electrons):
               1          2          3          4          5          6
     1  C    4.729008   0.391410   0.581021  -0.030564  -0.110770   0.005085
     2  H    0.391410   0.566632  -0.048324   0.000104   0.007123  -0.000144
     3  C    0.581021  -0.048324   4.840486   0.377286  -0.104621   0.004300
     4  H   -0.030564   0.000104   0.377286   0.564497   0.005567  -0.000117
     5  C   -0.110770   0.007123  -0.104621   0.005567   4.662935   0.391154
     6  H    0.005085  -0.000144   0.004300  -0.000117   0.391154   0.541343
     7  N    0.430453  -0.040142  -0.053295   0.003983   0.482268  -0.034934
     8  N   -0.056879   0.003126   0.384542  -0.044169   0.400884  -0.050485
     9  C    0.005858  -0.000090  -0.037008  -0.000340  -0.032063  -0.000248
    10  H    0.000013  -0.000005  -0.002476   0.001672   0.002408  -0.000065
    11  H   -0.000265   0.000005   0.003875   0.000021  -0.002894   0.003573
    12  C    0.000006   0.000000  -0.000450   0.000025  -0.001219   0.000025
    13  H    0.000003  -0.000000  -0.000018  -0.000024  -0.000052  -0.000007
    14  H   -0.000130   0.000002   0.003159   0.000766  -0.000124   0.000006
    15  H   -0.000041  -0.000000  -0.000319   0.000008   0.002112   0.000113
    16  Cl   0.001131   0.000688  -0.000222   0.000003   0.000810   0.000830
    17  H   -0.004498  -0.000996   0.000988  -0.000013  -0.007828  -0.000357
               7          8          9         10         11         12
     1  C    0.430453  -0.056879   0.005858   0.000013  -0.000265   0.000006
     2  H   -0.040142   0.003126  -0.000090  -0.000005   0.000005   0.000000
     3  C   -0.053295   0.384542  -0.037008  -0.002476   0.003875  -0.000450
     4  H    0.003983  -0.044169  -0.000340   0.001672   0.000021   0.000025
     5  C    0.482268   0.400884  -0.032063   0.002408  -0.002894  -0.001219
     6  H   -0.034934  -0.050485  -0.000248  -0.000065   0.003573   0.000025
     7  N    6.787981  -0.067262   0.004878  -0.000213   0.000152  -0.000138
     8  N   -0.067262   6.686995   0.273623  -0.036762  -0.035681  -0.061096
     9  C    0.004878   0.273623   4.804805   0.389159   0.391019   0.364499
    10  H   -0.000213  -0.036762   0.389159   0.591542  -0.033212  -0.044959
    11  H    0.000152  -0.035681   0.391019  -0.033212   0.583394  -0.038631
    12  C   -0.000138  -0.061096   0.364499  -0.044959  -0.038631   4.949213
    13  H    0.000001   0.004175  -0.026720  -0.001015  -0.001903   0.373264
    14  H    0.000010  -0.003442  -0.031934  -0.004779   0.004727   0.388224
    15  H   -0.000104  -0.001048  -0.031867   0.004959  -0.004897   0.386508
    16  Cl  -0.070594  -0.000093   0.000004  -0.000000   0.000000  -0.000000
    17  H    0.052704   0.000632  -0.000009   0.000000  -0.000002   0.000000
              13         14         15         16         17
     1  C    0.000003  -0.000130  -0.000041   0.001131  -0.004498
     2  H   -0.000000   0.000002  -0.000000   0.000688  -0.000996
     3  C   -0.000018   0.003159  -0.000319  -0.000222   0.000988
     4  H   -0.000024   0.000766   0.000008   0.000003  -0.000013
     5  C   -0.000052  -0.000124   0.002112   0.000810  -0.007828
     6  H   -0.000007   0.000006   0.000113   0.000830  -0.000357
     7  N    0.000001   0.000010  -0.000104  -0.070594   0.052704
     8  N    0.004175  -0.003442  -0.001048  -0.000093   0.000632
     9  C   -0.026720  -0.031934  -0.031867   0.000004  -0.000009
    10  H   -0.001015  -0.004779   0.004959  -0.000000   0.000000
    11  H   -0.001903   0.004727  -0.004897   0.000000  -0.000002
    12  C    0.373264   0.388224   0.386508  -0.000000   0.000000
    13  H    0.583093  -0.027345  -0.026233   0.000000  -0.000000
    14  H   -0.027345   0.575533  -0.029844   0.000000  -0.000000
    15  H   -0.026233  -0.029844   0.570133  -0.000000   0.000000
    16  Cl   0.000000   0.000000  -0.000000  17.183605   0.241594
    17  H   -0.000000  -0.000000   0.000000   0.241594   0.517679
 Mulliken charges:
               1
     1  C    0.059157
     2  H    0.120611
     3  C    0.051077
     4  H    0.121295
     5  C    0.304309
     6  H    0.139926
     7  N   -0.495748
     8  N   -0.397060
     9  C   -0.073565
    10  H    0.133733
    11  H    0.130718
    12  C   -0.315272
    13  H    0.122781
    14  H    0.125171
    15  H    0.130518
    16  Cl  -0.357757
    17  H    0.200106
 Sum of Mulliken charges =  -0.00000
 Mulliken charges with hydrogens summed into heavy atoms:
               1
     1  C    0.179768
     3  C    0.172372
     5  C    0.444236
     7  N   -0.495748
     8  N   -0.397060
     9  C    0.190886
    12  C    0.063198
    16  Cl  -0.157651
 Electronic spatial extent (au):  <R**2>=           1947.7496
 Charge=              0.0000 electrons
 Dipole moment (field-independent basis, Debye):
    X=              8.9387    Y=              0.4297    Z=             -0.5997  Tot=              8.9691
 Quadrupole moment (field-independent basis, Debye-Ang):
   XX=            -67.8302   YY=            -49.9714   ZZ=            -56.8011
   XY=             -4.0785   XZ=             -0.5437   YZ=              1.6316
 Traceless Quadrupole moment (field-independent basis, Debye-Ang):
   XX=             -9.6293   YY=              8.2295   ZZ=              1.3998
   XY=             -4.0785   XZ=             -0.5437   YZ=              1.6316
 Octapole moment (field-independent basis, Debye-Ang**2):
  XXX=            107.6901  YYY=              4.8284  ZZZ=             -0.8753  XYY=              5.1378
  XXY=              8.3765  XXZ=             -4.6566  XZZ=              2.1919  YZZ=             -2.6219
  YYZ=              0.3633  XYZ=             -0.2931
 Hexadecapole moment (field-independent basis, Debye-Ang**3):
 XXXX=          -2311.7445 YYYY=           -296.7644 ZZZZ=           -124.2653 XXXY=            -37.3967
 XXXZ=             -2.9408 YYYX=             -2.2679 YYYZ=              8.4312 ZZZX=             -2.7988
 ZZZY=             -0.0015 XXYY=           -397.8498 XXZZ=           -377.9041 YYZZ=            -75.7889
 XXYZ=              2.7839 YYXZ=             -2.1945 ZZXY=             -2.1575
 N-N= 4.080827191425D+02 E-N=-2.618247507451D+03  KE= 7.612951690319D+02
 Unable to Open any file for archive entry.
 1\1\GINC-CLOVE\FOpt\RB3LYP\6-31G(d,p)\C5H9Cl1N2\ROOT\23-Apr-2024\0\\# 
 opt b3lyp/6-31g(d,p) int=ultrafine scfconver=9\\Title\\0,1\C,-0.195412
 6088,1.566672658,0.1858349657\H,-0.7535804197,2.4529521348,0.448182251
 \C,1.1566684731,1.4188906932,0.0185212878\H,1.9757040495,2.1160983113,
 0.1029318541\C,0.1336588319,-0.4961972621,-0.34660214\H,-0.0121882029,
 -1.5392491811,-0.5887781914\N,-0.8208133286,0.3640966779,-0.0453705376
 \N,1.357413233,0.0948776602,-0.3259364186\C,2.6448068099,-0.5623606303
 ,-0.5561462498\H,3.2395746285,0.0821010236,-1.2108722885\H,2.441271136
 3,-1.4826801462,-1.1104418356\C,3.3981796505,-0.866352039,0.7392732818
 \H,4.3477634842,-1.3595368001,0.5109208645\H,3.6156086511,0.0503227851
 ,1.294690237\H,2.8129128517,-1.5263659883,1.3855046285\Cl,-3.713674959
 4,-0.3485838646,0.0597420611\H,-2.3865732803,0.0049549677,0.0160312299
 \\Version=EM64M-G16RevC.01\State=1-A\HF=-765.6770013\RMSD=6.249e-10\RM
 SF=1.314e-05\Dipole=3.52163,0.0923959,-0.2034612\Quadrupole=-7.2884294
 ,6.1707601,1.1176693,-2.7085287,-0.5340578,1.3673387\PG=C01 [X(C5H9Cl1
 N2)]\\@
 The archive entry for this job was punched.


 IF IT'S NOT TRUE, IT'S WELL INVENTED -- DANTE
 Job cpu time:       0 days  0 hours 36 minutes 58.3 seconds.
 Elapsed time:       0 days  0 hours 37 minutes  5.8 seconds.
 File lengths (MBytes):  RWF=     20 Int=      0 D2E=      0 Chk=      3 Scr=      1
 Normal termination of Gaussian 16 at Tue Apr 23 12:39:08 2024.
